                         Program Version 6.1.0  -  RELEASE   -
|  1> ! B3LYP def2-SVP d3 EnGrad
|  2> %pal nprocs 6 end
|  3> *xyz 0 1
|  4> H   -1.73108796469351 0.0817000963527 1.88526383254369
|  5> C   -1.91711590635206 0.0362629757452 0.80177361239034
|  6> C   -1.66401695341729 1.3133974271869 0.04964466925288
|  7> C   -1.17365538494818 1.00328257273758 -1.19418375368631
|  8> C   -0.83967875297808 -0.37967211349701 -1.25318837796864
|  9> C   -1.03705911496341 -0.94213948995407 0.03589786366514
| 10> H   -2.97702492181778 -0.26326633745481 0.66778244358683
| 11> C   0.66808584486771 -0.72586996095538 0.99687912974995
| 12> H   -1.98011605889885 2.30067949748801 0.38908565408668
| 13> H   -0.99362958177124 1.71889734925875 -1.99903106966973
| 14> H   -0.48530213085304 -0.90950307020248 -2.13591429713615
| 15> C   1.64348231215205 -1.27183549638611 -0.03664747867489
| 16> H   -1.17419306169343 -2.02005783754963 0.16496426053879
| 17> H   2.56471494713222 -1.60072424482473 0.48690534202998
| 18> H   0.43767777228025 -1.30816133998595 1.89397104472232
| 19> C   0.90564950933192 0.67225548271104 1.07245172962187
| 20> C   1.63144390870741 1.06620232610418 -0.08728094072689
| 21> H   0.5803718628427 1.33546468226295 1.87240780012293
| 22> H   1.83966235228145 2.10137196749127 -0.36539497664448
| 23> C   1.94469210464468 -0.03750480302123 -0.84070328415484
| 24> H   1.27723368879104 -2.13394432067744 -0.61367579057926
| 25> H   2.47986552935548 -0.03683536282972 -1.79100741307022
| 26> *
| 27>
| 28>                          ****END OF INPUT****

CARTESIAN COORDINATES (ANGSTROEM)
---------------------------------
  H     -1.731088    0.081700    1.885264
  C     -1.917116    0.036263    0.801774
  C     -1.664017    1.313397    0.049645
  C     -1.173655    1.003283   -1.194184
  C     -0.839679   -0.379672   -1.253188
  C     -1.037059   -0.942139    0.035898
  H     -2.977025   -0.263266    0.667782
  C      0.668086   -0.725870    0.996879
  H     -1.980116    2.300679    0.389086
  H     -0.993630    1.718897   -1.999031
  H     -0.485302   -0.909503   -2.135914
  C      1.643482   -1.271835   -0.036647
  H     -1.174193   -2.020058    0.164964
  H      2.564715   -1.600724    0.486905
  H      0.437678   -1.308161    1.893971
  C      0.905650    0.672255    1.072452
  C      1.631444    1.066202   -0.087281
  H      0.580372    1.335465    1.872408
  H      1.839662    2.101372   -0.365395
  C      1.944692   -0.037505   -0.840703
  H      1.277234   -2.133944   -0.613676
  H      2.479866   -0.036835   -1.791007

 Total Charge           Charge          ....    0
 Multiplicity           Mult            ....    1
 Number of Electrons    NEL             ....   72
 Basis Dimension        Dim             ....  200

ORBITAL ENERGIES
----------------

  NO   OCC          E(Eh)            E(eV)
   0   2.0000     -10.191387      -277.3217
   1   2.0000     -10.191301      -277.3194
   2   2.0000     -10.182931      -277.0916
   3   2.0000     -10.182885      -277.0904
   4   2.0000     -10.177672      -276.9485
   5   2.0000     -10.177628      -276.9473
   6   2.0000     -10.174128      -276.8521
   7   2.0000     -10.173971      -276.8478
   8   2.0000     -10.173191      -276.8266
   9   2.0000     -10.173082      -276.8236
  10   2.0000      -0.855640       -23.2832
  11   2.0000      -0.826231       -22.4829
  12   2.0000      -0.704383       -19.1672
  13   2.0000      -0.693063       -18.8592
  14   2.0000      -0.677547       -18.4370
  15   2.0000      -0.669097       -18.2070
  16   2.0000      -0.547452       -14.8969
  17   2.0000      -0.539112       -14.6700
  18   2.0000      -0.521425       -14.1887
  19   2.0000      -0.507533       -13.8107
  20   2.0000      -0.505270       -13.7491
  21   2.0000      -0.492117       -13.3912
  22   2.0000      -0.446412       -12.1475
  23   2.0000      -0.415234       -11.2991
  24   2.0000      -0.386127       -10.5071
  25   2.0000      -0.374556       -10.1922
  26   2.0000      -0.369313       -10.0495
  27   2.0000      -0.365538        -9.9468
  28   2.0000      -0.359726        -9.7886
  29   2.0000      -0.355576        -9.6757
  30   2.0000      -0.352656        -9.5963
  31   2.0000      -0.339464        -9.2373
  32   2.0000      -0.313013        -8.5175
  33   2.0000      -0.259611        -7.0644
  34   2.0000      -0.253629        -6.9016
  35   2.0000      -0.177439        -4.8284
  36   0.0000      -0.035127        -0.9559
  37   0.0000       0.033890         0.9222
  38   0.0000       0.036966         1.0059
  39   0.0000       0.062060         1.6887
  40   0.0000       0.093050         2.5320

MULLIKEN ATOMIC CHARGES
-----------------------
   0 H :    0.002934
   1 C :    0.139288
   2 C :   -0.085910
   3 C :    0.042822
   4 C :    0.014995
   5 C :   -0.088994
   6 H :    0.025264
   7 C :   -0.088354
   8 H :   -0.013393
   9 H :   -0.022390
  10 H :   -0.015319
  11 C :    0.138760
  12 H :    0.000864
  13 H :    0.025354
  14 H :    0.000752
  15 C :    0.014741
  16 C :    0.042379
  17 H :   -0.015407
  18 H :   -0.022497
  19 C :   -0.084919
  20 H :    0.002658
  21 H :   -0.013627
Sum of atomic charges:   -0.0000000

LOEWDIN ATOMIC CHARGES
----------------------
   0 H :    0.021544
   1 C :   -0.022262
   2 C :   -0.040210
   3 C :   -0.022380
   4 C :   -0.046099
   5 C :   -0.003594
   6 H :    0.040763
   7 C :   -0.003497
   8 H :    0.016338
   9 H :    0.019968
  10 H :    0.017387
  11 C :   -0.022221
  12 H :    0.018655
  13 H :    0.040795
  14 H :    0.018608
  15 C :   -0.046261
  16 C :   -0.022374
  17 H :    0.017364
  18 H :    0.019922
  19 C :   -0.040174
  20 H :    0.021444
  21 H :    0.016284

  Mayer bond orders larger than 0.100000
B(  0-H ,  1-C ) :   0.9317 B(  1-C ,  2-C ) :   1.0294 B(  1-C ,  5-C ) :   1.0482
B(  1-C ,  6-H ) :   0.8955 B(  2-C ,  3-C ) :   1.5791 B(  2-C ,  8-H ) :   0.9908
B(  2-C , 15-C ) :   0.1630 B(  3-C ,  4-C ) :   1.2565 B(  3-C ,  9-H ) :   0.9952
B(  4-C ,  5-C ) :   1.3335 B(  4-C , 10-H ) :   0.9783 B(  4-C , 15-C ) :   0.1175
B(  4-C , 19-C ) :   0.1642 B(  5-C ,  7-C ) :   0.5461 B(  5-C , 12-H ) :   0.9459
B(  7-C , 11-C ) :   1.0484 B(  7-C , 14-H ) :   0.9460 B(  7-C , 15-C ) :   1.3326
B( 11-C , 13-H ) :   0.8956 B( 11-C , 19-C ) :   1.0294 B( 11-C , 20-H ) :   0.9318
B( 15-C , 16-C ) :   1.2578 B( 15-C , 17-H ) :   0.9785 B( 16-C , 18-H ) :   0.9952
B( 16-C , 19-C ) :   1.5779 B( 19-C , 21-H ) :   0.9908

Dispersion correction           -0.045462349
FINAL SINGLE POINT ENERGY      -387.677366759264
Dispersion correction             ... done (  0.0 sec)

DIPOLE MOMENT
-------------

Method             : SCF
Type of density    : Electron Density
Multiplicity       :   1
Irrep              :   0
Energy             :  -387.6319044099131474 Eh
Basis              : AO
                                X                 Y                 Z
Electronic contribution:      0.268511294       1.218713786      -0.755941316
Nuclear contribution   :     -0.303450389      -1.377068032       0.853860748
                        -----------------------------------------
Total Dipole Moment    :     -0.034939095      -0.158354246       0.097919432
                        -----------------------------------------
Magnitude (a.u.)       :      0.189433425
Magnitude (Debye)      :      0.481501502

Rotational constants in cm-1:             0.079323             0.044198             0.042082
Rotational constants in MHz :          2378.054983          1325.034201          1261.584829

                             ****ORCA TERMINATED NORMALLY****
TOTAL RUN TIME: 0 days 0 hours 0 minutes 44 seconds 270 msec
