                         Program Version 6.1.0  -  RELEASE   -
|  1> ! B3LYP def2-SVP d3 EnGrad
|  2> %pal nprocs 6 end
|  3> *xyz 0 1
|  4> C   -0.28744639740834 -0.38854428157716 -0.00023990101061
|  5> O   0.40858461447372 -1.32120785723089 0.00039875587463
|  6> H   0.5594255543863 1.06546612916508 0.00045703716087
|  7> H   -0.68056377145169 0.64428600964295 -0.00061589202488
|  8> *
|  9>
| 10>                          ****END OF INPUT****

CARTESIAN COORDINATES (ANGSTROEM)
---------------------------------
  C     -0.287446   -0.388544   -0.000240
  O      0.408585   -1.321208    0.000399
  H      0.559426    1.065466    0.000457
  H     -0.680564    0.644286   -0.000616

 Total Charge           Charge          ....    0
 Multiplicity           Mult            ....    1
 Number of Electrons    NEL             ....   16
 Basis Dimension        Dim             ....   38

ORBITAL ENERGIES
----------------

  NO   OCC          E(Eh)            E(eV)
   0   2.0000     -19.220273      -523.0102
   1   2.0000     -10.331564      -281.1362
   2   2.0000      -1.122217       -30.5371
   3   2.0000      -0.657680       -17.8964
   4   2.0000      -0.520542       -14.1647
   5   2.0000      -0.459823       -12.5124
   6   2.0000      -0.459610       -12.5066
   7   2.0000      -0.222924        -6.0661
   8   0.0000      -0.066027        -1.7967
   9   0.0000      -0.010183        -0.2771
  10   0.0000       0.029874         0.8129
  11   0.0000       0.213725         5.8158
  12   0.0000       0.428731        11.6664

MULLIKEN ATOMIC CHARGES
-----------------------
   0 C :    0.141364
   1 O :   -0.063543
   2 H :   -0.258133
   3 H :    0.180312
Sum of atomic charges:   -0.0000000

LOEWDIN ATOMIC CHARGES
----------------------
   0 C :    0.092252
   1 O :   -0.003150
   2 H :   -0.171529
   3 H :    0.082426

  Mayer bond orders larger than 0.100000
B(  0-C ,  1-O ) :   2.2623 B(  0-C ,  2-H ) :   0.5561 B(  0-C ,  3-H ) :   0.8357
B(  1-O ,  2-H ) :   0.1566 B(  2-H ,  3-H ) :   0.1662

Dispersion correction           -0.002238568
FINAL SINGLE POINT ENERGY      -114.223722300251
Dispersion correction             ... done (  0.1 sec)

DIPOLE MOMENT
-------------

Method             : SCF
Type of density    : Electron Density
Multiplicity       :   1
Irrep              :   0
Energy             :  -114.2214837320941854 Eh
Basis              : AO
                                X                 Y                 Z
Electronic contribution:     -0.398958769      -2.994915901      -0.000257127
Nuclear contribution   :     -0.294183530       3.101238624      -0.000353383
                        -----------------------------------------
Total Dipole Moment    :     -0.693142298       0.106322723      -0.000610510
                        -----------------------------------------
Magnitude (a.u.)       :      0.701249698
Magnitude (Debye)      :      1.782435081

Rotational constants in cm-1:             8.844562             1.184039             1.044244
Rotational constants in MHz :        265153.300035         35496.599016         31305.649524

                             ****ORCA TERMINATED NORMALLY****
TOTAL RUN TIME: 0 days 0 hours 0 minutes 4 seconds 796 msec
