                         Program Version 6.1.0  -  RELEASE   -
|  1> ! B3LYP def2-SVP d3 EnGrad
|  2> %pal nprocs 6 end
|  3> *xyz 0 1
|  4> C   -0.49390421678954 -1.94557865770614 0.52355643568001
|  5> C   -1.14351512823129 -1.00949449979317 -0.46333191896822
|  6> C   -1.42508148505742 0.25223146345105 -0.23901697597672
|  7> C   -1.68626361420868 1.51613412324367 -0.01169415451528
|  8> C   2.09055226896152 0.89508792689582 0.617664519904
|  9> C   2.23664251389609 0.47314336730102 -0.63894787421608
| 10> H   -1.3897380576796 -1.42146130592521 -1.45246456340051
| 11> H   -0.33957512549855 -1.45972761837865 1.49746188933856
| 12> H   -1.11200893671513 -2.84677721985814 0.67519671152142
| 13> H   2.94565346529545 1.21568305084598 1.22176929645617
| 14> H   1.10506631015965 0.93885343049803 1.09192497618272
| 15> H   0.48988904073486 -2.28012683555547 0.15197528192495
| 16> H   3.21851558618511 0.42977429225025 -1.12201040240154
| 17> H   -0.94673937813687 2.29528286836167 -0.23204467411045
| 18> H   -2.65061437067211 1.83947729401329 0.39794232762546
| 19> H   1.37366712775647 0.15603432035603 -1.23251987504447
| 20> *
| 21>
| 22>                          ****END OF INPUT****

CARTESIAN COORDINATES (ANGSTROEM)
---------------------------------
  C     -0.493904   -1.945579    0.523556
  C     -1.143515   -1.009494   -0.463332
  C     -1.425081    0.252231   -0.239017
  C     -1.686264    1.516134   -0.011694
  C      2.090552    0.895088    0.617665
  C      2.236643    0.473143   -0.638948
  H     -1.389738   -1.421461   -1.452465
  H     -0.339575   -1.459728    1.497462
  H     -1.112009   -2.846777    0.675197
  H      2.945653    1.215683    1.221769
  H      1.105066    0.938853    1.091925
  H      0.489889   -2.280127    0.151975
  H      3.218516    0.429774   -1.122010
  H     -0.946739    2.295283   -0.232045
  H     -2.650614    1.839477    0.397942
  H      1.373667    0.156034   -1.232520

 Total Charge           Charge          ....    0
 Multiplicity           Mult            ....    1
 Number of Electrons    NEL             ....   46
 Basis Dimension        Dim             ....  134

ORBITAL ENERGIES
----------------

  NO   OCC          E(Eh)            E(eV)
   0   2.0000     -10.196522      -277.4615
   1   2.0000     -10.195558      -277.4352
   2   2.0000     -10.190571      -277.2995
   3   2.0000     -10.188519      -277.2437
   4   2.0000     -10.181892      -277.0634
   5   2.0000     -10.181148      -277.0431
   6   2.0000      -0.790977       -21.5236
   7   2.0000      -0.743406       -20.2291
   8   2.0000      -0.725716       -19.7477
   9   2.0000      -0.643283       -17.5046
  10   2.0000      -0.563652       -15.3378
  11   2.0000      -0.506449       -13.7812
  12   2.0000      -0.463033       -12.5998
  13   2.0000      -0.459204       -12.4956
  14   2.0000      -0.435228       -11.8432
  15   2.0000      -0.415583       -11.3086
  16   2.0000      -0.412490       -11.2244
  17   2.0000      -0.407798       -11.0967
  18   2.0000      -0.372211       -10.1284
  19   2.0000      -0.347222        -9.4484
  20   2.0000      -0.268425        -7.3042
  21   2.0000      -0.264281        -7.1915
  22   2.0000      -0.251877        -6.8539
  23   0.0000       0.010066         0.2739
  24   0.0000       0.013589         0.3698
  25   0.0000       0.019873         0.5408
  26   0.0000       0.073572         2.0020
  27   0.0000       0.096717         2.6318

MULLIKEN ATOMIC CHARGES
-----------------------
   0 C :    0.069717
   1 C :   -0.237250
   2 C :    0.169747
   3 C :   -0.200943
   4 C :   -0.066448
   5 C :   -0.063293
   6 H :    0.034777
   7 H :    0.019051
   8 H :    0.021715
   9 H :    0.023993
  10 H :    0.034622
  11 H :    0.027344
  12 H :    0.023589
  13 H :    0.054755
  14 H :    0.051024
  15 H :    0.037600
Sum of atomic charges:    0.0000000

LOEWDIN ATOMIC CHARGES
----------------------
   0 C :   -0.042777
   1 C :   -0.078296
   2 C :    0.014058
   3 C :   -0.101588
   4 C :   -0.048853
   5 C :   -0.048842
   6 H :    0.040303
   7 H :    0.030922
   8 H :    0.031341
   9 H :    0.022275
  10 H :    0.022808
  11 H :    0.033452
  12 H :    0.022050
  13 H :    0.040075
  14 H :    0.039450
  15 H :    0.023623

  Mayer bond orders larger than 0.100000
B(  0-C ,  1-C ) :   1.0623 B(  0-C ,  7-H ) :   0.9683 B(  0-C ,  8-H ) :   0.9568
B(  0-C , 11-H ) :   0.9537 B(  1-C ,  2-C ) :   1.8238 B(  1-C ,  6-H ) :   0.9341
B(  2-C ,  3-C ) :   1.9612 B(  3-C , 13-H ) :   0.9274 B(  3-C , 14-H ) :   0.9340
B(  4-C ,  5-C ) :   2.0776 B(  4-C ,  9-H ) :   0.9609 B(  4-C , 10-H ) :   0.9536
B(  5-C , 12-H ) :   0.9603 B(  5-C , 15-H ) :   0.9531

Dispersion correction           -0.018938676
FINAL SINGLE POINT ENERGY      -234.246540120350
Dispersion correction             ... done (  0.1 sec)

DIPOLE MOMENT
-------------

Method             : SCF
Type of density    : Electron Density
Multiplicity       :   1
Irrep              :   0
Energy             :  -234.2276014442757912 Eh
Basis              : AO
                                X                 Y                 Z
Electronic contribution:     -2.786641910       1.018685817      -1.086991727
Nuclear contribution   :      2.795694812      -1.181516940       1.111272259
                        -----------------------------------------
Total Dipole Moment    :      0.009052902      -0.162831123       0.024280532
                        -----------------------------------------
Magnitude (a.u.)       :      0.164880180
Magnitude (Debye)      :      0.419092112

Rotational constants in cm-1:             0.115788             0.065346             0.047985
Rotational constants in MHz :          3471.228021          1959.033323          1438.543934

                             ****ORCA TERMINATED NORMALLY****
TOTAL RUN TIME: 0 days 0 hours 0 minutes 16 seconds 767 msec
