                         Program Version 6.1.0  -  RELEASE   -
|  1> ! B3LYP def2-SVP d3 EnGrad
|  2> %pal nprocs 6 end
|  3> *xyz 0 1
|  4> C   -0.17240184862995 0.14262237139653 1.34700437514393
|  5> C   -0.46594682043848 -1.32806937497682 1.72719577196228
|  6> O   -0.03838913049662 -2.2539536486361 1.09157088518866
|  7> F   0.3258633199341 0.21553079540383 0.11670827515262
|  8> F   0.7410378147606 0.65176310151892 2.19872781806713
|  9> F   -1.26725574515803 0.90410741498611 1.41169986109863
| 10> O   -1.1926729042442 -1.37049771872151 2.82646226616907
| 11> C   -1.39044636128067 -2.67547829670761 3.42781240144398
| 12> C   -2.29138699765864 -2.49679699499328 4.62788324277445
| 13> N   1.89098994965746 -2.07672946953132 3.54767560121317
| 14> H   -1.82514232949563 -3.34424638464124 2.66872545329309
| 15> H   -0.39052299363594 -3.0440623753903 3.70256690088645
| 16> H   -2.46085607887855 -3.47208581724637 5.11051988431106
| 17> H   -1.82884245837237 -1.82267178925996 5.36485705096771
| 18> H   -3.26859511040567 -2.08033676518625 4.33812468267991
| 19> H   2.63876841261336 -2.37706843902367 4.17510042293467
| 20> H   2.06514504235747 -2.53428499558806 2.65049335211194
| 21> H   2.04077923937176 -1.07962161340291 3.38114275460118
| 22> *
| 23>
| 24>                          ****END OF INPUT****

CARTESIAN COORDINATES (ANGSTROEM)
---------------------------------
  C     -0.172402    0.142622    1.347004
  C     -0.465947   -1.328069    1.727196
  O     -0.038389   -2.253954    1.091571
  F      0.325863    0.215531    0.116708
  F      0.741038    0.651763    2.198728
  F     -1.267256    0.904107    1.411700
  O     -1.192673   -1.370498    2.826462
  C     -1.390446   -2.675478    3.427812
  C     -2.291387   -2.496797    4.627883
  N      1.890990   -2.076729    3.547676
  H     -1.825142   -3.344246    2.668725
  H     -0.390523   -3.044062    3.702567
  H     -2.460856   -3.472086    5.110520
  H     -1.828842   -1.822672    5.364857
  H     -3.268595   -2.080337    4.338125
  H      2.638768   -2.377068    4.175100
  H      2.065145   -2.534285    2.650493
  H      2.040779   -1.079622    3.381143

 Total Charge           Charge          ....    0
 Multiplicity           Mult            ....    1
 Number of Electrons    NEL             ....   82
 Basis Dimension        Dim             ....  180

ORBITAL ENERGIES
----------------

  NO   OCC          E(Eh)            E(eV)
   0   2.0000     -24.727205      -672.8615
   1   2.0000     -24.725189      -672.8066
   2   2.0000     -24.725038      -672.8025
   3   2.0000     -19.193183      -522.2731
   4   2.0000     -19.142472      -520.8931
   5   2.0000     -14.309744      -389.3879
   6   2.0000     -10.439415      -284.0709
   7   2.0000     -10.333563      -281.1906
   8   2.0000     -10.244957      -278.7795
   9   2.0000     -10.189862      -277.2803
  10   2.0000      -1.307556       -35.5804
  11   2.0000      -1.215739       -33.0819
  12   2.0000      -1.213908       -33.0321
  13   2.0000      -1.114785       -30.3349
  14   2.0000      -1.028933       -27.9987
  15   2.0000      -0.840723       -22.8772
  16   2.0000      -0.787610       -21.4319
  17   2.0000      -0.729691       -19.8559
  18   2.0000      -0.659344       -17.9417
  19   2.0000      -0.612739       -16.6735
  20   2.0000      -0.602258       -16.3883
  21   2.0000      -0.596392       -16.2287
  22   2.0000      -0.565212       -15.3802
  23   2.0000      -0.505743       -13.7620
  24   2.0000      -0.482523       -13.1301
  25   2.0000      -0.476884       -12.9767
  26   2.0000      -0.473518       -12.8851
  27   2.0000      -0.463044       -12.6001
  28   2.0000      -0.457552       -12.4506
  29   2.0000      -0.453501       -12.3404
  30   2.0000      -0.441741       -12.0204
  31   2.0000      -0.437583       -11.9072
  32   2.0000      -0.422493       -11.4966
  33   2.0000      -0.415945       -11.3184
  34   2.0000      -0.401810       -10.9338
  35   2.0000      -0.395515       -10.7625
  36   2.0000      -0.368345       -10.0232
  37   2.0000      -0.360265        -9.8033
  38   2.0000      -0.316657        -8.6167
  39   2.0000      -0.297233        -8.0881
  40   2.0000      -0.264948        -7.2096
  41   0.0000      -0.022542        -0.6134
  42   0.0000       0.050184         1.3656
  43   0.0000       0.071785         1.9534
  44   0.0000       0.107525         2.9259
  45   0.0000       0.110526         3.0076

MULLIKEN ATOMIC CHARGES
-----------------------
   0 C :    0.534430
   1 C :    0.116546
   2 O :   -0.214095
   3 F :   -0.146824
   4 F :   -0.175239
   5 F :   -0.156076
   6 O :   -0.298642
   7 C :    0.180366
   8 C :   -0.005505
   9 N :   -0.234154
  10 H :    0.021232
  11 H :    0.029710
  12 H :    0.019679
  13 H :    0.030454
  14 H :    0.025840
  15 H :    0.086528
  16 H :    0.098886
  17 H :    0.086865
Sum of atomic charges:   -0.0000000

LOEWDIN ATOMIC CHARGES
----------------------
   0 C :    0.139403
   1 C :    0.024952
   2 O :   -0.148189
   3 F :   -0.038160
   4 F :   -0.061319
   5 F :   -0.047990
   6 O :   -0.064653
   7 C :    0.099218
   8 C :   -0.061102
   9 N :   -0.143772
  10 H :    0.019113
  11 H :    0.019606
  12 H :    0.034137
  13 H :    0.031933
  14 H :    0.028679
  15 H :    0.059180
  16 H :    0.057170
  17 H :    0.051793

  Mayer bond orders larger than 0.100000
B(  0-C ,  1-C ) :   0.8608 B(  0-C ,  3-F ) :   1.1750 B(  0-C ,  4-F ) :   1.1148
B(  0-C ,  5-F ) :   1.1593 B(  1-C ,  2-O ) :   2.0488 B(  1-C ,  6-O ) :   1.2301
B(  2-O ,  6-O ) :   0.1016 B(  6-O ,  7-C ) :   0.8597 B(  7-C ,  8-C ) :   1.1156
B(  7-C , 10-H ) :   0.9522 B(  7-C , 11-H ) :   0.9327 B(  8-C , 12-H ) :   0.9582
B(  8-C , 13-H ) :   0.9656 B(  8-C , 14-H ) :   0.9684 B(  9-N , 15-H ) :   0.9882
B(  9-N , 16-H ) :   0.9788 B(  9-N , 17-H ) :   0.9829

Dispersion correction           -0.021854470
FINAL SINGLE POINT ENERGY      -661.197545924780
Dispersion correction             ... done (  0.0 sec)

DIPOLE MOMENT
-------------

Method             : SCF
Type of density    : Electron Density
Multiplicity       :   1
Irrep              :   0
Energy             :  -661.1756914543248058 Eh
Basis              : AO
                                X                 Y                 Z
Electronic contribution:      1.299608343      15.321323617     -14.855955519
Nuclear contribution   :     -1.109419638     -15.760031902      15.646665083
                        -----------------------------------------
Total Dipole Moment    :      0.190188705      -0.438708285       0.790709565
                        -----------------------------------------
Magnitude (a.u.)       :      0.924044544
Magnitude (Debye)      :      2.348734573

Rotational constants in cm-1:             0.054167             0.028568             0.024400
Rotational constants in MHz :          1623.878195           856.437635           731.499778

                             ****ORCA TERMINATED NORMALLY****
TOTAL RUN TIME: 0 days 0 hours 0 minutes 25 seconds 394 msec
