                         Program Version 6.1.0  -  RELEASE   -
|  1> ! B3LYP def2-SVP d3 EnGrad
|  2> %pal nprocs 6 end
|  3> *xyz 0 1
|  4> P   -0.59858338284403 0.14038367806051 -0.2899381940817
|  5> H   -1.00828587165737 0.08380153116479 -1.69119712703186
|  6> C   -1.14118336109795 1.22988184690259 0.86320353550148
|  7> C   -1.00363832026539 -1.5797248822246 0.17619896280307
|  8> H   1.74026558394636 0.70449639584376 1.50189081885212
|  9> H   -0.80532921102341 2.26761255363254 0.77647355237913
| 10> H   -2.13869138532476 1.06997184218066 1.28205134285158
| 11> H   -0.54181474665525 -1.81522005021496 1.14512833133451
| 12> H   -2.09625156359593 -1.66890371482952 0.27557947816759
| 13> H   -0.65701804351988 -2.28159125415196 -0.59729008086957
| 14> H   1.94912675503674 -1.00022391563779 1.05011745324726
| 15> C   2.05574842613768 0.03546563208879 0.68873974698234
| 16> C   1.21521613787665 0.27684195694583 -0.56468876843304
| 17> H   3.12401096355906 0.20721755179664 0.48138561118357
| 18> H   1.37673175186085 1.29587711560549 -0.95773277441784
| 19> H   1.47658426756663 -0.41804028716278 -1.38104488846865
| 20> *
| 21>
| 22>                          ****END OF INPUT****

CARTESIAN COORDINATES (ANGSTROEM)
---------------------------------
  P     -0.598583    0.140384   -0.289938
  H     -1.008286    0.083802   -1.691197
  C     -1.141183    1.229882    0.863204
  C     -1.003638   -1.579725    0.176199
  H      1.740266    0.704496    1.501891
  H     -0.805329    2.267613    0.776474
  H     -2.138691    1.069972    1.282051
  H     -0.541815   -1.815220    1.145128
  H     -2.096252   -1.668904    0.275579
  H     -0.657018   -2.281591   -0.597290
  H      1.949127   -1.000224    1.050117
  C      2.055748    0.035466    0.688740
  C      1.215216    0.276842   -0.564689
  H      3.124011    0.207218    0.481386
  H      1.376732    1.295877   -0.957733
  H      1.476584   -0.418040   -1.381045

 Total Charge           Charge          ....    0
 Multiplicity           Mult            ....    1
 Number of Electrons    NEL             ....   50
 Basis Dimension        Dim             ....  129

ORBITAL ENERGIES
----------------

  NO   OCC          E(Eh)            E(eV)
   0   2.0000     -77.095308     -2097.8700
   1   2.0000     -10.197592      -277.4906
   2   2.0000     -10.195404      -277.4310
   3   2.0000     -10.185079      -277.1501
   4   2.0000     -10.118566      -275.3402
   5   2.0000      -6.586111      -179.2172
   6   2.0000      -4.752713      -129.3279
   7   2.0000      -4.751574      -129.2969
   8   2.0000      -4.750123      -129.2574
   9   2.0000      -0.785561       -21.3762
  10   2.0000      -0.729663       -19.8551
  11   2.0000      -0.662212       -18.0197
  12   2.0000      -0.619753       -16.8643
  13   2.0000      -0.528973       -14.3941
  14   2.0000      -0.456443       -12.4204
  15   2.0000      -0.452891       -12.3238
  16   2.0000      -0.433225       -11.7886
  17   2.0000      -0.408961       -11.1284
  18   2.0000      -0.397777       -10.8240
  19   2.0000      -0.378612       -10.3025
  20   2.0000      -0.359663        -9.7869
  21   2.0000      -0.353559        -9.6208
  22   2.0000      -0.339759        -9.2453
  23   2.0000      -0.324547        -8.8314
  24   2.0000      -0.165532        -4.5043
  25   0.0000       0.041832         1.1383
  26   0.0000       0.062653         1.7049
  27   0.0000       0.072459         1.9717
  28   0.0000       0.091294         2.4842
  29   0.0000       0.093589         2.5467

MULLIKEN ATOMIC CHARGES
-----------------------
   0 P :    0.392159
   1 H :   -0.095956
   2 C :   -0.364780
   3 C :   -0.142515
   4 H :    0.037273
   5 H :    0.019357
   6 H :    0.019096
   7 H :    0.062574
   8 H :    0.062010
   9 H :    0.040368
  10 H :    0.010987
  11 C :    0.024727
  12 C :   -0.160358
  13 H :    0.018431
  14 H :    0.049098
  15 H :    0.027528
Sum of atomic charges:    0.0000000

LOEWDIN ATOMIC CHARGES
----------------------
   0 P :    0.843739
   1 H :   -0.128605
   2 C :   -0.542378
   3 C :   -0.200677
   4 H :    0.031390
   5 H :    0.010505
   6 H :    0.010784
   7 H :    0.036712
   8 H :    0.040952
   9 H :    0.029819
  10 H :    0.022042
  11 C :   -0.060855
  12 C :   -0.176924
  13 H :    0.025829
  14 H :    0.034173
  15 H :    0.023496

  Mayer bond orders larger than 0.100000
B(  0-P ,  1-H ) :   0.7748 B(  0-P ,  2-C ) :   1.5142 B(  0-P ,  3-C ) :   1.0230
B(  0-P , 12-C ) :   0.9902 B(  1-H ,  2-C ) :   0.1130 B(  2-C ,  5-H ) :   0.9544
B(  2-C ,  6-H ) :   0.9558 B(  3-C ,  7-H ) :   0.9561 B(  3-C ,  8-H ) :   0.9600
B(  3-C ,  9-H ) :   0.9540 B(  4-H , 11-C ) :   0.9669 B( 10-H , 11-C ) :   0.9722
B( 11-C , 12-C ) :   1.0692 B( 11-C , 13-H ) :   0.9643 B( 12-C , 14-H ) :   0.9382
B( 12-C , 15-H ) :   0.9346

Dispersion correction           -0.024216893
FINAL SINGLE POINT ENERGY      -499.979597715162
Dispersion correction             ... done (  0.1 sec)

DIPOLE MOMENT
-------------

Method             : SCF
Type of density    : Electron Density
Multiplicity       :   1
Irrep              :   0
Energy             :  -499.9553808222588032 Eh
Basis              : AO
                                X                 Y                 Z
Electronic contribution:     -2.660471554       1.124900472      -1.865504534
Nuclear contribution   :      3.074048397      -1.828047707       1.306628998
                        -----------------------------------------
Total Dipole Moment    :      0.413576843      -0.703147235      -0.558875535
                        -----------------------------------------
Magnitude (a.u.)       :      0.988839574
Magnitude (Debye)      :      2.513430451

Rotational constants in cm-1:             0.161713             0.097379             0.079572
Rotational constants in MHz :          4848.022056          2919.351751          2385.494519

                             ****ORCA TERMINATED NORMALLY****
TOTAL RUN TIME: 0 days 0 hours 0 minutes 17 seconds 407 msec
