                         Program Version 6.1.0  -  RELEASE   -
|  1> ! B3LYP def2-SVP d3 EnGrad
|  2> %pal nprocs 6 end
|  3> *xyz 0 1
|  4> C   1.76423512178705 0.18960772407771 -0.04047669979921
|  5> C   0.43326343437462 0.81721839212454 0.16468145664634
|  6> H   2.46907471690275 0.87978760646238 -0.5416197528355
|  7> H   1.69302511387537 -0.74325673323367 -0.62388599186844
|  8> H   2.2411043255318 -0.07332090466761 0.92465102336224
|  9> C   -0.81127570590684 0.20337343034118 -0.17236195230341
| 10> O   -1.86737686298149 1.10348360264989 -0.35905220009478
| 11> C   -1.13910170793829 -1.15600769105923 0.34427423484067
| 12> H   -0.47907598184978 -0.28186851066691 -1.15457426613157
| 13> H   -1.56981050722883 -1.87478116876272 -0.36211340861696
| 14> H   -0.50235634797941 -1.58348969405954 1.12577919633462
| 15> H   -2.62587409936657 0.69810983933416 0.09069813154667
| 16> H   0.39416850077963 1.82114410745982 0.60400022891935
| 17> *
| 18>
| 19>                          ****END OF INPUT****

CARTESIAN COORDINATES (ANGSTROEM)
---------------------------------
  C      1.764235    0.189608   -0.040477
  C      0.433263    0.817218    0.164681
  H      2.469075    0.879788   -0.541620
  H      1.693025   -0.743257   -0.623886
  H      2.241104   -0.073321    0.924651
  C     -0.811276    0.203373   -0.172362
  O     -1.867377    1.103484   -0.359052
  C     -1.139102   -1.156008    0.344274
  H     -0.479076   -0.281869   -1.154574
  H     -1.569811   -1.874781   -0.362113
  H     -0.502356   -1.583490    1.125779
  H     -2.625874    0.698110    0.090698
  H      0.394169    1.821144    0.604000

 Total Charge           Charge          ....    0
 Multiplicity           Mult            ....    1
 Number of Electrons    NEL             ....   40
 Basis Dimension        Dim             ....  110

ORBITAL ENERGIES
----------------

  NO   OCC          E(Eh)            E(eV)
   0   2.0000     -19.125153      -520.4219
   1   2.0000     -10.248727      -278.8821
   2   2.0000     -10.204739      -277.6851
   3   2.0000     -10.196802      -277.4691
   4   2.0000     -10.180203      -277.0174
   5   2.0000      -1.010258       -27.4905
   6   2.0000      -0.796636       -21.6776
   7   2.0000      -0.715217       -19.4620
   8   2.0000      -0.637315       -17.3422
   9   2.0000      -0.551951       -15.0194
  10   2.0000      -0.502101       -13.6629
  11   2.0000      -0.462402       -12.5826
  12   2.0000      -0.453536       -12.3414
  13   2.0000      -0.412205       -11.2167
  14   2.0000      -0.398688       -10.8489
  15   2.0000      -0.391510       -10.6535
  16   2.0000      -0.357729        -9.7343
  17   2.0000      -0.333438        -9.0733
  18   2.0000      -0.275214        -7.4890
  19   2.0000      -0.177505        -4.8301
  20   0.0000      -0.081163        -2.2086
  21   0.0000       0.057771         1.5720
  22   0.0000       0.080274         2.1844
  23   0.0000       0.091390         2.4868
  24   0.0000       0.110869         3.0169

MULLIKEN ATOMIC CHARGES
-----------------------
   0 C :    0.058322
   1 C :   -0.144395
   2 H :    0.027611
   3 H :    0.011921
   4 H :    0.033571
   5 C :    0.199518
   6 O :   -0.259986
   7 C :   -0.214284
   8 H :    0.062881
   9 H :    0.026353
  10 H :    0.025667
  11 H :    0.151547
  12 H :    0.021273
Sum of atomic charges:   -0.0000000

LOEWDIN ATOMIC CHARGES
----------------------
   0 C :   -0.058247
   1 C :   -0.001753
   2 H :    0.034200
   3 H :    0.026878
   4 H :    0.039380
   5 C :    0.014193
   6 O :   -0.122252
   7 C :   -0.164544
   8 H :    0.112098
   9 H :    0.010004
  10 H :    0.014698
  11 H :    0.069548
  12 H :    0.025797

  Mayer bond orders larger than 0.100000
B(  0-C ,  1-C ) :   1.1070 B(  0-C ,  2-H ) :   0.9444 B(  0-C ,  3-H ) :   0.9584
B(  0-C ,  4-H ) :   0.9337 B(  1-C ,  5-C ) :   1.2106 B(  1-C ,  7-C ) :   0.5050
B(  1-C , 12-H ) :   0.9583 B(  5-C ,  6-O ) :   1.0878 B(  5-C ,  7-C ) :   1.0861
B(  5-C ,  8-H ) :   0.7502 B(  6-O , 11-H ) :   0.9618 B(  7-C ,  8-H ) :   0.1362
B(  7-C ,  9-H ) :   0.9626 B(  7-C , 10-H ) :   0.9621

Dispersion correction           -0.015053678
FINAL SINGLE POINT ENERGY      -232.007699210901
Dispersion correction             ... done (  0.1 sec)

DIPOLE MOMENT
-------------

Method             : SCF
Type of density    : Electron Density
Multiplicity       :   1
Irrep              :   0
Energy             :  -231.9926455329528778 Eh
Basis              : AO
                                X                 Y                 Z
Electronic contribution:     -3.632461569       2.618941659      -0.233255923
Nuclear contribution   :      4.128431193      -2.857206617       0.275290061
                        -----------------------------------------
Total Dipole Moment    :      0.495969624      -0.238264958       0.042034138
                        -----------------------------------------
Magnitude (a.u.)       :      0.551835960
Magnitude (Debye)      :      1.402655539

Rotational constants in cm-1:             0.280541             0.119354             0.089563
Rotational constants in MHz :          8410.398557          3578.136785          2685.037005

                             ****ORCA TERMINATED NORMALLY****
TOTAL RUN TIME: 0 days 0 hours 0 minutes 14 seconds 727 msec
