                         Program Version 6.1.0  -  RELEASE   -
|  1> ! B3LYP def2-SVP d3 EnGrad
|  2> %pal nprocs 6 end
|  3> *xyz 0 1
|  4> C   -0.49880705898803 1.65891231167891 0.6729287763613
|  5> C   -0.25025301229909 0.65612043509711 -0.18998884345452
|  6> C   0.24800338235293 -0.65688384441255 0.19023397958645
|  7> C   0.49655681419112 -1.65967355965962 -0.67268631584732
|  8> C   -1.00961813668942 3.01562655590356 0.30008066385133
|  9> C   1.0073683976586 -3.01638994419559 -0.29984727206063
| 10> H   -0.31554492833411 1.48150189406705 1.7414046018819
| 11> H   -0.42938822977684 0.8204028911157 -1.26115408655112
| 12> H   0.4271390737678 -0.82116780646876 1.26139886876741
| 13> H   0.31329472654998 -1.48225848073959 -1.74116139344638
| 14> H   -0.30522308745019 3.80897351363362 0.60952034429718
| 15> H   -1.96587121423292 3.23818873050989 0.80726464270901
| 16> H   -1.1700883434908 3.10640966699437 -0.78570426776724
| 17> H   1.96362026834885 -3.23894767736979 -0.80703547205035
| 18> H   0.30297176388303 -3.80973356771702 -0.6092918124921
| 19> H   1.16784059450914 -3.1071821184373 0.78593658621508
| 20> *
| 21>
| 22>                          ****END OF INPUT****

CARTESIAN COORDINATES (ANGSTROEM)
---------------------------------
  C     -0.498807    1.658912    0.672929
  C     -0.250253    0.656120   -0.189989
  C      0.248003   -0.656884    0.190234
  C      0.496557   -1.659674   -0.672686
  C     -1.009618    3.015627    0.300081
  C      1.007368   -3.016390   -0.299847
  H     -0.315545    1.481502    1.741405
  H     -0.429388    0.820403   -1.261154
  H      0.427139   -0.821168    1.261399
  H      0.313295   -1.482258   -1.741161
  H     -0.305223    3.808974    0.609520
  H     -1.965871    3.238189    0.807265
  H     -1.170088    3.106410   -0.785704
  H      1.963620   -3.238948   -0.807035
  H      0.302972   -3.809734   -0.609292
  H      1.167841   -3.107182    0.785937

 Total Charge           Charge          ....    0
 Multiplicity           Mult            ....    1
 Number of Electrons    NEL             ....   46
 Basis Dimension        Dim             ....  134

ORBITAL ENERGIES
----------------

  NO   OCC          E(Eh)            E(eV)
   0   2.0000     -10.182564      -277.0817
   1   2.0000     -10.182559      -277.0815
   2   2.0000     -10.182455      -277.0787
   3   2.0000     -10.182434      -277.0781
   4   2.0000     -10.178489      -276.9708
   5   2.0000     -10.178367      -276.9674
   6   2.0000      -0.798676       -21.7331
   7   2.0000      -0.761281       -20.7155
   8   2.0000      -0.702343       -19.1117
   9   2.0000      -0.642354       -17.4794
  10   2.0000      -0.546311       -14.8659
  11   2.0000      -0.541087       -14.7237
  12   2.0000      -0.468003       -12.7350
  13   2.0000      -0.440110       -11.9760
  14   2.0000      -0.407873       -11.0988
  15   2.0000      -0.405162       -11.0250
  16   2.0000      -0.398388       -10.8407
  17   2.0000      -0.389074       -10.5872
  18   2.0000      -0.359729        -9.7887
  19   2.0000      -0.351182        -9.5562
  20   2.0000      -0.336070        -9.1449
  21   2.0000      -0.304758        -8.2929
  22   2.0000      -0.211872        -5.7653
  23   0.0000      -0.015414        -0.4194
  24   0.0000       0.074374         2.0238
  25   0.0000       0.077113         2.0983
  26   0.0000       0.081039         2.2052
  27   0.0000       0.083033         2.2595

MULLIKEN ATOMIC CHARGES
-----------------------
   0 C :   -0.105527
   1 C :    0.020230
   2 C :    0.020232
   3 C :   -0.105528
   4 C :    0.071086
   5 C :    0.071087
   6 H :   -0.011330
   7 H :   -0.025731
   8 H :   -0.025731
   9 H :   -0.011329
  10 H :    0.021733
  11 H :    0.021508
  12 H :    0.008030
  13 H :    0.021508
  14 H :    0.021733
  15 H :    0.008031
Sum of atomic charges:   -0.0000000

LOEWDIN ATOMIC CHARGES
----------------------
   0 C :   -0.035866
   1 C :   -0.042405
   2 C :   -0.042405
   3 C :   -0.035866
   4 C :   -0.054819
   5 C :   -0.054819
   6 H :    0.019760
   7 H :    0.022039
   8 H :    0.022039
   9 H :    0.019760
  10 H :    0.032221
  11 H :    0.032127
  12 H :    0.026942
  13 H :    0.032127
  14 H :    0.032222
  15 H :    0.026942

  Mayer bond orders larger than 0.100000
B(  0-C ,  1-C ) :   1.8209 B(  0-C ,  3-C ) :   0.1192 B(  0-C ,  4-C ) :   1.0718
B(  0-C ,  6-H ) :   0.9601 B(  1-C ,  2-C ) :   1.1130 B(  1-C ,  7-H ) :   0.9649
B(  2-C ,  3-C ) :   1.8209 B(  2-C ,  8-H ) :   0.9649 B(  3-C ,  5-C ) :   1.0718
B(  3-C ,  9-H ) :   0.9601 B(  4-C , 10-H ) :   0.9511 B(  4-C , 11-H ) :   0.9511
B(  4-C , 12-H ) :   0.9647 B(  5-C , 13-H ) :   0.9511 B(  5-C , 14-H ) :   0.9511
B(  5-C , 15-H ) :   0.9647

Dispersion correction           -0.019348979
FINAL SINGLE POINT ENERGY      -234.315554367393
Dispersion correction             ... done (  0.0 sec)

DIPOLE MOMENT
-------------

Method             : SCF
Type of density    : Electron Density
Multiplicity       :   1
Irrep              :   0
Energy             :  -234.2962053882847329 Eh
Basis              : AO
                                X                 Y                 Z
Electronic contribution:      0.000000890      -0.000002338       0.000018364
Nuclear contribution   :     -0.000000016       0.000000374      -0.000019454
                        -----------------------------------------
Total Dipole Moment    :      0.000000874      -0.000001964      -0.000001089
                        -----------------------------------------
Magnitude (a.u.)       :      0.000002409
Magnitude (Debye)      :      0.000006124

Rotational constants in cm-1:             0.770983             0.039983             0.038559
Rotational constants in MHz :         23113.496783          1198.646811          1155.959401

                             ****ORCA TERMINATED NORMALLY****
TOTAL RUN TIME: 0 days 0 hours 0 minutes 16 seconds 564 msec
