                         Program Version 6.1.0  -  RELEASE   -
|  1> ! B3LYP def2-SVP d3 EnGrad
|  2> %pal nprocs 6 end
|  3> *xyz 0 1
|  4> C   2.24173577982448 0.42974936518271 -0.48200875768905
|  5> C   0.95988425458845 0.81888504711385 0.12134106681956
|  6> C   -0.32645026924175 0.15994223332211 0.01596283744867
|  7> C   -0.42243677489091 -1.20166464174491 -0.68964268284936
|  8> O   -1.25188772145566 1.05013396474511 -0.34601676711906
|  9> H   2.27538741730908 0.91601642383345 -1.4827706398414
| 10> H   2.32558668739246 -0.65270960502993 -0.65426537464998
| 11> H   3.11136474721515 0.81306115216194 0.0740087796003
| 12> H   0.32927213909141 -1.92012494725236 -0.32548497590554
| 13> H   -0.31720113160337 -1.06224973094671 -1.77662291780462
| 14> H   -1.42309463917093 -1.60946957910686 -0.49179168687524
| 15> H   -2.26564089166663 0.73608097302022 0.9902981484341
| 16> H   0.88180471419241 1.80067641030095 0.60333228645419
| 17> H   -3.15986389980506 -0.40803283918924 1.48256426832196
| 18> O   -2.53975898429914 0.25331576274505 1.81693106223886
| 19> H   -0.41870142747996 -0.12360998915539 1.14416535341662
| 20> *
| 21>
| 22>                          ****END OF INPUT****

CARTESIAN COORDINATES (ANGSTROEM)
---------------------------------
  C      2.241736    0.429749   -0.482009
  C      0.959884    0.818885    0.121341
  C     -0.326450    0.159942    0.015963
  C     -0.422437   -1.201665   -0.689643
  O     -1.251888    1.050134   -0.346017
  H      2.275387    0.916016   -1.482771
  H      2.325587   -0.652710   -0.654265
  H      3.111365    0.813061    0.074009
  H      0.329272   -1.920125   -0.325485
  H     -0.317201   -1.062250   -1.776623
  H     -1.423095   -1.609470   -0.491792
  H     -2.265641    0.736081    0.990298
  H      0.881805    1.800676    0.603332
  H     -3.159864   -0.408033    1.482564
  O     -2.539759    0.253316    1.816931
  H     -0.418701   -0.123610    1.144165

 Total Charge           Charge          ....    0
 Multiplicity           Mult            ....    1
 Number of Electrons    NEL             ....   50
 Basis Dimension        Dim             ....  134

ORBITAL ENERGIES
----------------

  NO   OCC          E(Eh)            E(eV)
   0   2.0000     -19.078865      -519.1623
   1   2.0000     -19.062521      -518.7176
   2   2.0000     -10.266881      -279.3760
   3   2.0000     -10.237660      -278.5809
   4   2.0000     -10.232060      -278.4285
   5   2.0000     -10.191641      -277.3286
   6   2.0000      -0.955578       -26.0026
   7   2.0000      -0.928881       -25.2761
   8   2.0000      -0.810569       -22.0567
   9   2.0000      -0.726606       -19.7719
  10   2.0000      -0.669038       -18.2054
  11   2.0000      -0.553485       -15.0611
  12   2.0000      -0.502020       -13.6607
  13   2.0000      -0.474236       -12.9046
  14   2.0000      -0.461506       -12.5582
  15   2.0000      -0.457687       -12.4543
  16   2.0000      -0.432890       -11.7795
  17   2.0000      -0.412874       -11.2349
  18   2.0000      -0.380718       -10.3599
  19   2.0000      -0.369735       -10.0610
  20   2.0000      -0.360421        -9.8075
  21   2.0000      -0.333150        -9.0655
  22   2.0000      -0.256052        -6.9675
  23   2.0000      -0.225147        -6.1266
  24   2.0000      -0.212776        -5.7899
  25   0.0000      -0.120746        -3.2857
  26   0.0000       0.036297         0.9877
  27   0.0000       0.071530         1.9464
  28   0.0000       0.073537         2.0010
  29   0.0000       0.096569         2.6278

MULLIKEN ATOMIC CHARGES
-----------------------
   0 C :    0.056257
   1 C :   -0.072382
   2 C :    0.126560
   3 C :    0.059654
   4 O :   -0.464727
   5 H :    0.080542
   6 H :    0.049110
   7 H :    0.051358
   8 H :   -0.000887
   9 H :    0.020447
  10 H :    0.010944
  11 H :    0.165375
  12 H :    0.064478
  13 H :    0.138749
  14 O :   -0.320619
  15 H :    0.035142
Sum of atomic charges:   -0.0000000

LOEWDIN ATOMIC CHARGES
----------------------
   0 C :   -0.058334
   1 C :    0.164812
   2 C :   -0.016007
   3 C :   -0.049694
   4 O :   -0.349866
   5 H :    0.079710
   6 H :    0.045412
   7 H :    0.048677
   8 H :    0.018079
   9 H :    0.027675
  10 H :    0.032019
  11 H :    0.041700
  12 H :    0.046406
  13 H :    0.064384
  14 O :   -0.161056
  15 H :    0.066082

  Mayer bond orders larger than 0.100000
B(  0-C ,  1-C ) :   1.1254 B(  0-C ,  5-H ) :   0.9033 B(  0-C ,  6-H ) :   0.9456
B(  0-C ,  7-H ) :   0.9428 B(  1-C ,  2-C ) :   1.0933 B(  1-C ,  4-O ) :   0.3548
B(  1-C , 12-H ) :   0.9500 B(  1-C , 15-H ) :   0.1359 B(  2-C ,  3-C ) :   1.0367
B(  2-C ,  4-O ) :   1.2834 B(  2-C , 15-H ) :   0.7098 B(  3-C ,  8-H ) :   0.9434
B(  3-C ,  9-H ) :   0.9506 B(  3-C , 10-H ) :   0.9471 B(  4-O , 11-H ) :   0.1839
B( 11-H , 14-O ) :   0.8913 B( 13-H , 14-O ) :   1.0075

Dispersion correction           -0.018711615
FINAL SINGLE POINT ENERGY      -308.370856299564
Dispersion correction             ... done (  0.0 sec)

DIPOLE MOMENT
-------------

Method             : SCF
Type of density    : Electron Density
Multiplicity       :   1
Irrep              :   0
Energy             :  -308.3521446847255447 Eh
Basis              : AO
                                X                 Y                 Z
Electronic contribution:     -2.393744154       2.991883883       0.884457329
Nuclear contribution   :      4.317594058      -3.675999601      -1.502032414
                        -----------------------------------------
Total Dipole Moment    :      1.923849904      -0.684115718      -0.617575085
                        -----------------------------------------
Magnitude (a.u.)       :      2.133216293
Magnitude (Debye)      :      5.422204908

Rotational constants in cm-1:             0.180937             0.056654             0.051178
Rotational constants in MHz :          5424.346838          1698.442752          1534.265992

                             ****ORCA TERMINATED NORMALLY****
TOTAL RUN TIME: 0 days 0 hours 0 minutes 19 seconds 692 msec
