                         Program Version 6.1.0  -  RELEASE   -
|  1> ! B3LYP def2-SVP d3 EnGrad
|  2> %pal nprocs 6 end
|  3> *xyz 0 1
|  4> C   1.87058863562537 0.23324389492981 0.18164482075791
|  5> C   0.47229944656904 0.81264603588617 0.29258308617339
|  6> C   -0.63588303458685 0.16047908991082 -0.36112159954933
|  7> C   -0.56964879678613 -1.19791506836631 -0.97420464541458
|  8> O   -1.67914873954117 0.87833742267897 -0.77435712354537
|  9> H   2.29168874165122 0.28441134527862 -0.84017575551765
| 10> H   1.89672894084422 -0.82156324406538 0.49820291150926
| 11> H   2.55890243418357 0.77815391269107 0.84605121739109
| 12> H   -0.06029049876926 -1.11916599116605 -1.95218780214794
| 13> H   -1.58078357584304 -1.59483122496648 -1.12924512036552
| 14> H   -0.00294141574235 -1.88036302177325 -0.33256443425555
| 15> H   -1.58130441484285 1.78931027224931 -0.45599590354144
| 16> H   0.42190713568463 1.91085870527866 0.20982863463496
| 17> H   -2.03092135224752 -0.14389314860566 1.88716811006017
| 18> O   -1.1851484188201 -0.47459659609606 1.54242963896753
| 19> H   -0.1860450873788 0.38488761613576 1.36194396484307
| 20> *
| 21>
| 22>                          ****END OF INPUT****

CARTESIAN COORDINATES (ANGSTROEM)
---------------------------------
  C      1.870589    0.233244    0.181645
  C      0.472299    0.812646    0.292583
  C     -0.635883    0.160479   -0.361122
  C     -0.569649   -1.197915   -0.974205
  O     -1.679149    0.878337   -0.774357
  H      2.291689    0.284411   -0.840176
  H      1.896729   -0.821563    0.498203
  H      2.558902    0.778154    0.846051
  H     -0.060290   -1.119166   -1.952188
  H     -1.580784   -1.594831   -1.129245
  H     -0.002941   -1.880363   -0.332564
  H     -1.581304    1.789310   -0.455996
  H      0.421907    1.910859    0.209829
  H     -2.030921   -0.143893    1.887168
  O     -1.185148   -0.474597    1.542430
  H     -0.186045    0.384888    1.361944

 Total Charge           Charge          ....    0
 Multiplicity           Mult            ....    1
 Number of Electrons    NEL             ....   50
 Basis Dimension        Dim             ....  134

ORBITAL ENERGIES
----------------

  NO   OCC          E(Eh)            E(eV)
   0   2.0000     -19.190136      -522.1901
   1   2.0000     -19.057337      -518.5765
   2   2.0000     -10.301198      -280.3098
   3   2.0000     -10.191040      -277.3123
   4   2.0000     -10.178147      -276.9615
   5   2.0000     -10.160349      -276.4772
   6   2.0000      -1.084605       -29.5136
   7   2.0000      -0.888688       -24.1824
   8   2.0000      -0.785444       -21.3730
   9   2.0000      -0.726513       -19.7694
  10   2.0000      -0.650284       -17.6951
  11   2.0000      -0.609111       -16.5748
  12   2.0000      -0.499087       -13.5809
  13   2.0000      -0.477424       -12.9914
  14   2.0000      -0.461739       -12.5646
  15   2.0000      -0.419574       -11.4172
  16   2.0000      -0.406101       -11.0506
  17   2.0000      -0.393188       -10.6992
  18   2.0000      -0.389896       -10.6096
  19   2.0000      -0.384911       -10.4740
  20   2.0000      -0.362260        -9.8576
  21   2.0000      -0.348135        -9.4732
  22   2.0000      -0.300293        -8.1714
  23   2.0000      -0.247159        -6.7255
  24   2.0000      -0.196658        -5.3513
  25   0.0000      -0.009594        -0.2611
  26   0.0000       0.036510         0.9935
  27   0.0000       0.067906         1.8478
  28   0.0000       0.096606         2.6288
  29   0.0000       0.111191         3.0257

MULLIKEN ATOMIC CHARGES
-----------------------
   0 C :    0.055063
   1 C :   -0.164084
   2 C :   -0.023399
   3 C :    0.126684
   4 O :   -0.139700
   5 H :    0.005259
   6 H :    0.010989
   7 H :    0.012048
   8 H :    0.024926
   9 H :    0.029926
  10 H :    0.037516
  11 H :    0.179524
  12 H :   -0.020981
  13 H :    0.129723
  14 O :   -0.442249
  15 H :    0.178753
Sum of atomic charges:   -0.0000000

LOEWDIN ATOMIC CHARGES
----------------------
   0 C :   -0.051766
   1 C :   -0.178242
   2 C :    0.177731
   3 C :   -0.044194
   4 O :   -0.002434
   5 H :    0.013893
   6 H :    0.025770
   7 H :    0.028438
   8 H :    0.038284
   9 H :    0.040774
  10 H :    0.045302
  11 H :    0.097567
  12 H :    0.010803
  13 H :    0.034421
  14 O :   -0.312960
  15 H :    0.076614

  Mayer bond orders larger than 0.100000
B(  0-C ,  1-C ) :   1.1101 B(  0-C ,  5-H ) :   0.9678 B(  0-C ,  6-H ) :   0.9556
B(  0-C ,  7-H ) :   0.9590 B(  1-C ,  2-C ) :   1.1803 B(  1-C , 12-H ) :   0.9235
B(  1-C , 15-H ) :   0.4661 B(  2-C ,  3-C ) :   1.0979 B(  2-C ,  4-O ) :   1.2854
B(  2-C , 14-O ) :   0.5017 B(  3-C ,  8-H ) :   0.9281 B(  3-C ,  9-H ) :   0.9449
B(  3-C , 10-H ) :   0.9429 B(  4-O , 11-H ) :   0.9531 B( 13-H , 14-O ) :   0.9835
B( 14-O , 15-H ) :   0.4817

Dispersion correction           -0.020334533
FINAL SINGLE POINT ENERGY      -308.404941445077
Dispersion correction             ... done (  0.0 sec)

DIPOLE MOMENT
-------------

Method             : SCF
Type of density    : Electron Density
Multiplicity       :   1
Irrep              :   0
Energy             :  -308.3846069116842727 Eh
Basis              : AO
                                X                 Y                 Z
Electronic contribution:     -4.808221581       1.755793994      -0.539412379
Nuclear contribution   :      4.754995953      -1.022508026      -0.114349939
                        -----------------------------------------
Total Dipole Moment    :     -0.053225627       0.733285968      -0.653762318
                        -----------------------------------------
Magnitude (a.u.)       :      0.983842694
Magnitude (Debye)      :      2.500729393

Rotational constants in cm-1:             0.128838             0.087007             0.079860
Rotational constants in MHz :          3862.451753          2608.397245          2394.151662

                             ****ORCA TERMINATED NORMALLY****
TOTAL RUN TIME: 0 days 0 hours 0 minutes 19 seconds 915 msec
