                         Program Version 6.1.0  -  RELEASE   -
|  1> ! B3LYP def2-SVP d3 EnGrad
|  2> %pal nprocs 6 end
|  3> *xyz 0 1
|  4> C   -4.02802072288835 0.5085643041418 0.09510815151047
|  5> C   -2.55304314319668 0.51859200783302 -0.16577345216422
|  6> C   -1.66750605874949 1.305486199828 0.46101121478008
|  7> C   -0.19275718723805 1.33347603937066 0.21249363584375
|  8> O   0.15141707711247 0.28641027923035 -0.71102431492544
|  9> Cl   -0.52646356448209 -1.66838263014278 1.96836485728705
| 10> S   1.73100138545865 -0.01498037974752 -1.00666145035299
| 11> O   2.51216278510335 0.27613564505045 0.19657474850225
| 12> Cl   2.06136082909948 1.68983141707497 -2.38932617993238
| 13> H   -4.30993352928255 1.20570122674203 0.89893618042605
| 14> H   -4.37513590801177 -0.50143214481148 0.37373737811354
| 15> H   -4.58643013935606 0.78797103546669 -0.81528405039904
| 16> H   -1.35010389208372 -0.84045397629098 1.39695768020161
| 17> H   -2.00670964332352 2.00897160227309 1.23197411082791
| 18> H   0.12616423909739 2.29939237574375 -0.22040388490009
| 19> H   0.36443606584099 1.18320318276727 1.15217948538706
| 20> H   -2.18078259310004 -0.16508018452934 -0.93728611020566
| 21> *
| 22>
| 23>                          ****END OF INPUT****

CARTESIAN COORDINATES (ANGSTROEM)
---------------------------------
  C     -4.028021    0.508564    0.095108
  C     -2.553043    0.518592   -0.165773
  C     -1.667506    1.305486    0.461011
  C     -0.192757    1.333476    0.212494
  O      0.151417    0.286410   -0.711024
  Cl    -0.526464   -1.668383    1.968365
  S      1.731001   -0.014980   -1.006661
  O      2.512163    0.276136    0.196575
  Cl     2.061361    1.689831   -2.389326
  H     -4.309934    1.205701    0.898936
  H     -4.375136   -0.501432    0.373737
  H     -4.586430    0.787971   -0.815284
  H     -1.350104   -0.840454    1.396958
  H     -2.006710    2.008972    1.231974
  H      0.126164    2.299392   -0.220404
  H      0.364436    1.183203    1.152179
  H     -2.180783   -0.165080   -0.937286

 Total Charge           Charge          ....    0
 Multiplicity           Mult            ....    1
 Number of Electrons    NEL             ....   98
 Basis Dimension        Dim             ....  178

ORBITAL ENERGIES
----------------

  NO   OCC          E(Eh)            E(eV)
   0   2.0000    -101.488425     -2761.6404
   1   2.0000    -101.486728     -2761.5943
   2   2.0000     -89.044499     -2423.0240
   3   2.0000     -19.202864      -522.5365
   4   2.0000     -19.165445      -521.5183
   5   2.0000     -10.270825      -279.4834
   6   2.0000     -10.214782      -277.9583
   7   2.0000     -10.212634      -277.8999
   8   2.0000     -10.202848      -277.6336
   9   2.0000      -9.441871      -256.9264
  10   2.0000      -9.440891      -256.8997
  11   2.0000      -8.121106      -220.9865
  12   2.0000      -7.210499      -196.2077
  13   2.0000      -7.209162      -196.1713
  14   2.0000      -7.201397      -195.9600
  15   2.0000      -7.201321      -195.9579
  16   2.0000      -7.200488      -195.9352
  17   2.0000      -7.200349      -195.9315
  18   2.0000      -6.090415      -165.7286
  19   2.0000      -6.088719      -165.6825
  20   2.0000      -6.080772      -165.4662
  21   2.0000      -1.121800       -30.5257
  22   2.0000      -1.041846       -28.3501
  23   2.0000      -0.830042       -22.5866
  24   2.0000      -0.817016       -22.2321
  25   2.0000      -0.806867       -21.9560
  26   2.0000      -0.758136       -20.6299
  27   2.0000      -0.687892       -18.7185
  28   2.0000      -0.642042       -17.4709
  29   2.0000      -0.564149       -15.3513
  30   2.0000      -0.536978       -14.6119
  31   2.0000      -0.513434       -13.9712
  32   2.0000      -0.504058       -13.7161
  33   2.0000      -0.466682       -12.6991
  34   2.0000      -0.450755       -12.2657
  35   2.0000      -0.446980       -12.1629
  36   2.0000      -0.443252       -12.0615
  37   2.0000      -0.425252       -11.5717
  38   2.0000      -0.405619       -11.0374
  39   2.0000      -0.383446       -10.4341
  40   2.0000      -0.371289       -10.1033
  41   2.0000      -0.352508        -9.5922
  42   2.0000      -0.346520        -9.4293
  43   2.0000      -0.312660        -8.5079
  44   2.0000      -0.308659        -8.3990
  45   2.0000      -0.306611        -8.3433
  46   2.0000      -0.302094        -8.2204
  47   2.0000      -0.295720        -8.0470
  48   2.0000      -0.274893        -7.4802
  49   0.0000      -0.084483        -2.2989
  50   0.0000      -0.012416        -0.3379
  51   0.0000      -0.003300        -0.0898
  52   0.0000       0.044829         1.2199
  53   0.0000       0.051191         1.3930

MULLIKEN ATOMIC CHARGES
-----------------------
   0 C :    0.070386
   1 C :   -0.093436
   2 C :   -0.147150
   3 C :    0.277615
   4 O :   -0.465813
   5 Cl:   -0.174063
   6 S :    0.828838
   7 O :   -0.417558
   8 Cl:   -0.243694
   9 H :    0.015580
  10 H :    0.029247
  11 H :    0.034860
  12 H :    0.151873
  13 H :    0.017508
  14 H :    0.041034
  15 H :    0.048806
  16 H :    0.025965
Sum of atomic charges:    0.0000000

LOEWDIN ATOMIC CHARGES
----------------------
   0 C :   -0.051743
   1 C :   -0.030928
   2 C :   -0.062071
   3 C :    0.068174
   4 O :   -0.305250
   5 Cl:   -0.029078
   6 S :    0.871874
   7 O :   -0.450272
   8 Cl:   -0.233919
   9 H :    0.029722
  10 H :    0.036513
  11 H :    0.039311
  12 H :    0.006479
  13 H :    0.033154
  14 H :    0.026185
  15 H :    0.023268
  16 H :    0.028580

  Mayer bond orders larger than 0.100000
B(  0-C ,  1-C ) :   1.0773 B(  0-C ,  9-H ) :   0.9655 B(  0-C , 10-H ) :   0.9510
B(  0-C , 11-H ) :   0.9514 B(  1-C ,  2-C ) :   1.8865 B(  1-C , 16-H ) :   0.9537
B(  2-C ,  3-C ) :   1.0450 B(  2-C , 13-H ) :   0.9513 B(  3-C ,  4-O ) :   0.8779
B(  3-C , 14-H ) :   0.9266 B(  3-C , 15-H ) :   0.9302 B(  4-O ,  6-S ) :   0.9479
B(  5-Cl, 12-H ) :   0.9307 B(  6-S ,  7-O ) :   1.7454 B(  6-S ,  8-Cl) :   0.7904
B(  7-O ,  8-Cl) :   0.1665

Dispersion correction           -0.031111720
FINAL SINGLE POINT ENERGY     -1625.275659601469
Dispersion correction             ... done (  0.0 sec)

DIPOLE MOMENT
-------------

Method             : SCF
Type of density    : Electron Density
Multiplicity       :   1
Irrep              :   0
Energy             : -1625.2445478819142863 Eh
Basis              : AO
                                X                 Y                 Z
Electronic contribution:     18.771939373      -3.897674502      -4.677403018
Nuclear contribution   :    -20.081350077       4.091213809       4.614532194
                        -----------------------------------------
Total Dipole Moment    :     -1.309410704       0.193539307      -0.062870824
                        -----------------------------------------
Magnitude (a.u.)       :      1.325128897
Magnitude (Debye)      :      3.368209981

Rotational constants in cm-1:             0.038973             0.017276             0.012917
Rotational constants in MHz :          1168.367433           517.924772           387.247050

                             ****ORCA TERMINATED NORMALLY****
TOTAL RUN TIME: 0 days 0 hours 0 minutes 26 seconds 456 msec
