                         Program Version 6.1.0  -  RELEASE   -
|  1> ! B3LYP def2-SVP d3 EnGrad
|  2> %pal nprocs 6 end
|  3> *xyz 0 1
|  4> C   -1.90356301538692 -1.67438856692375 -0.47139178410326
|  5> C   -1.14354382842961 -0.59784144402874 -0.27716679086846
|  6> C   -1.16830032417284 0.70421187209988 0.23599347082908
|  7> C   -0.14913560001067 1.08465867368082 1.12241746789593
|  8> C   1.56102163136032 0.84636973340616 0.08590632451867
|  9> C   1.54326854258435 -0.37975457014704 -0.61630113563793
| 10> H   0.08328514196281 -0.72323645936167 -0.60040655218564
| 11> H   -2.91140671692252 -1.74921369906879 -0.04956551814986
| 12> H   -1.53705433000076 -2.53215642468487 -1.04375094009425
| 13> H   1.54652436266485 1.7685871764275 -0.5030536715591
| 14> H   2.17993847526531 0.91554925247219 0.98484519208541
| 15> H   1.97929915364385 -1.27036678049553 -0.15142438379396
| 16> H   1.56266046693397 -0.37216096564894 -1.71083744299236
| 17> H   -0.09878161533083 2.12994004579543 1.4446963998068
| 18> H   0.13348717556777 0.36791708777854 1.90014670560484
| 19> H   -1.67769951972907 1.4818850686988 -0.35010734135592
| 20> *
| 21>
| 22>                          ****END OF INPUT****

CARTESIAN COORDINATES (ANGSTROEM)
---------------------------------
  C     -1.903563   -1.674389   -0.471392
  C     -1.143544   -0.597841   -0.277167
  C     -1.168300    0.704212    0.235993
  C     -0.149136    1.084659    1.122417
  C      1.561022    0.846370    0.085906
  C      1.543269   -0.379755   -0.616301
  H      0.083285   -0.723236   -0.600407
  H     -2.911407   -1.749214   -0.049566
  H     -1.537054   -2.532156   -1.043751
  H      1.546524    1.768587   -0.503054
  H      2.179938    0.915549    0.984845
  H      1.979299   -1.270367   -0.151424
  H      1.562660   -0.372161   -1.710837
  H     -0.098782    2.129940    1.444696
  H      0.133487    0.367917    1.900147
  H     -1.677700    1.481885   -0.350107

 Total Charge           Charge          ....    0
 Multiplicity           Mult            ....    1
 Number of Electrons    NEL             ....   46
 Basis Dimension        Dim             ....  134

ORBITAL ENERGIES
----------------

  NO   OCC          E(Eh)            E(eV)
   0   2.0000     -10.195418      -277.4314
   1   2.0000     -10.194775      -277.4139
   2   2.0000     -10.186855      -277.1984
   3   2.0000     -10.183520      -277.1077
   4   2.0000     -10.180952      -277.0378
   5   2.0000     -10.180813      -277.0340
   6   2.0000      -0.801220       -21.8023
   7   2.0000      -0.742313       -20.1994
   8   2.0000      -0.713785       -19.4231
   9   2.0000      -0.620203       -16.8766
  10   2.0000      -0.568863       -15.4796
  11   2.0000      -0.518850       -14.1186
  12   2.0000      -0.466317       -12.6891
  13   2.0000      -0.458343       -12.4722
  14   2.0000      -0.442785       -12.0488
  15   2.0000      -0.414683       -11.2841
  16   2.0000      -0.400196       -10.8899
  17   2.0000      -0.387621       -10.5477
  18   2.0000      -0.355222        -9.6661
  19   2.0000      -0.348285        -9.4773
  20   2.0000      -0.290274        -7.8988
  21   2.0000      -0.258389        -7.0311
  22   2.0000      -0.208431        -5.6717
  23   0.0000      -0.030883        -0.8404
  24   0.0000       0.014511         0.3949
  25   0.0000       0.058773         1.5993
  26   0.0000       0.078109         2.1254
  27   0.0000       0.094319         2.5666

MULLIKEN ATOMIC CHARGES
-----------------------
   0 C :   -0.050671
   1 C :   -0.051744
   2 C :   -0.020654
   3 C :   -0.020884
   4 C :   -0.050683
   5 C :   -0.026268
   6 H :   -0.008812
   7 H :    0.023640
   8 H :    0.015806
   9 H :    0.025371
  10 H :    0.032652
  11 H :    0.029868
  12 H :    0.028843
  13 H :    0.017269
  14 H :    0.033549
  15 H :    0.022718
Sum of atomic charges:    0.0000000

LOEWDIN ATOMIC CHARGES
----------------------
   0 C :   -0.070418
   1 C :   -0.032526
   2 C :   -0.065678
   3 C :   -0.017390
   4 C :   -0.029448
   5 C :   -0.085528
   6 H :    0.059883
   7 H :    0.026972
   8 H :    0.023582
   9 H :    0.024286
  10 H :    0.030785
  11 H :    0.023875
  12 H :    0.027588
  13 H :    0.024423
  14 H :    0.027527
  15 H :    0.032066

  Mayer bond orders larger than 0.100000
B(  0-C ,  1-C ) :   1.9900 B(  0-C ,  7-H ) :   0.9547 B(  0-C ,  8-H ) :   0.9294
B(  1-C ,  2-C ) :   1.3201 B(  1-C ,  6-H ) :   0.5693 B(  2-C ,  3-C ) :   1.4516
B(  2-C ,  5-C ) :   0.1594 B(  2-C , 15-H ) :   0.9524 B(  3-C ,  4-C ) :   0.6027
B(  3-C , 13-H ) :   0.9436 B(  3-C , 14-H ) :   0.9500 B(  4-C ,  5-C ) :   1.4902
B(  4-C ,  9-H ) :   0.9498 B(  4-C , 10-H ) :   0.9490 B(  5-C ,  6-H ) :   0.4324
B(  5-C , 11-H ) :   0.9535 B(  5-C , 12-H ) :   0.9357

Dispersion correction           -0.022774079
FINAL SINGLE POINT ENERGY      -234.201176545481
Dispersion correction             ... done (  0.1 sec)

DIPOLE MOMENT
-------------

Method             : SCF
Type of density    : Electron Density
Multiplicity       :   1
Irrep              :   0
Energy             :  -234.1784024666810069 Eh
Basis              : AO
                                X                 Y                 Z
Electronic contribution:     -2.533284642       0.152689659       0.213480244
Nuclear contribution   :      2.766016971       0.036750588      -0.174394356
                        -----------------------------------------
Total Dipole Moment    :      0.232732329       0.189440247       0.039085889
                        -----------------------------------------
Magnitude (a.u.)       :      0.302621299
Magnitude (Debye)      :      0.769202213

Rotational constants in cm-1:             0.174675             0.084213             0.061429
Rotational constants in MHz :          5236.637015          2524.648841          1841.595789

                             ****ORCA TERMINATED NORMALLY****
TOTAL RUN TIME: 0 days 0 hours 0 minutes 19 seconds 515 msec
