                         Program Version 6.1.0  -  RELEASE   -
|  1> ! B3LYP def2-SVP d3 EnGrad
|  2> %pal nprocs 6 end
|  3> *xyz 0 1
|  4> N   0.29350761357066 1.77700916763446 0.66419870809708
|  5> B   0.66486552311972 0.47109971697096 -0.20043145243945
|  6> N   -0.43207049396465 -1.98449315793648 -0.24730931321039
|  7> B   -0.79665438032674 -0.64186819587676 -0.21300712153464
|  8> H   0.522648780406 -2.29199728337562 -0.09311072788193
|  9> H   1.6189234368305 -0.15114595394375 0.22503087353556
| 10> H   0.63472677490526 0.68980662487395 -1.40112018460243
| 11> H   0.19037745743877 2.65085605067201 0.15875409779168
| 12> H   0.80752447443128 1.89072668926072 1.5310950742568
| 13> H   -1.06797326901741 -2.72846878641982 -0.51263997979915
| 14> H   -1.96451164414842 -0.37949442925335 -0.42238066200915
| 15> H   -0.47136427324497 0.69796955739369 0.51092068779602
| 16> *
| 17>
| 18>                          ****END OF INPUT****

CARTESIAN COORDINATES (ANGSTROEM)
---------------------------------
  N      0.293508    1.777009    0.664199
  B      0.664866    0.471100   -0.200431
  N     -0.432070   -1.984493   -0.247309
  B     -0.796654   -0.641868   -0.213007
  H      0.522649   -2.291997   -0.093111
  H      1.618923   -0.151146    0.225031
  H      0.634727    0.689807   -1.401120
  H      0.190377    2.650856    0.158754
  H      0.807524    1.890727    1.531095
  H     -1.067973   -2.728469   -0.512640
  H     -1.964512   -0.379494   -0.422381
  H     -0.471364    0.697970    0.510921

 Total Charge           Charge          ....    0
 Multiplicity           Mult            ....    1
 Number of Electrons    NEL             ....   32
 Basis Dimension        Dim             ....   96

ORBITAL ENERGIES
----------------

  NO   OCC          E(Eh)            E(eV)
   0   2.0000     -14.322891      -389.7457
   1   2.0000     -14.312294      -389.4573
   2   2.0000      -6.736507      -183.3097
   3   2.0000      -6.717002      -182.7789
   4   2.0000      -0.849244       -23.1091
   5   2.0000      -0.842453       -22.9243
   6   2.0000      -0.577529       -15.7154
   7   2.0000      -0.505149       -13.7458
   8   2.0000      -0.493047       -13.4165
   9   2.0000      -0.485556       -13.2126
  10   2.0000      -0.406353       -11.0574
  11   2.0000      -0.368189       -10.0189
  12   2.0000      -0.313612        -8.5338
  13   2.0000      -0.306687        -8.3454
  14   2.0000      -0.281191        -7.6516
  15   2.0000      -0.218162        -5.9365
  16   0.0000      -0.003662        -0.0996
  17   0.0000       0.056746         1.5441
  18   0.0000       0.071382         1.9424
  19   0.0000       0.108007         2.9390
  20   0.0000       0.120199         3.2708

MULLIKEN ATOMIC CHARGES
-----------------------
   0 N :   -0.183383
   1 B :   -0.092670
   2 N :   -0.017776
   3 B :   -0.231944
   4 H :    0.119007
   5 H :   -0.082333
   6 H :   -0.055362
   7 H :    0.122113
   8 H :    0.118437
   9 H :    0.116245
  10 H :   -0.042997
  11 H :    0.230662
Sum of atomic charges:    0.0000000

LOEWDIN ATOMIC CHARGES
----------------------
   0 N :   -0.023133
   1 B :   -0.287578
   2 N :    0.069862
   3 B :   -0.139786
   4 H :    0.082905
   5 H :   -0.041510
   6 H :   -0.008510
   7 H :    0.073787
   8 H :    0.072926
   9 H :    0.080581
  10 H :   -0.037164
  11 H :    0.157620

  Mayer bond orders larger than 0.100000
B(  0-N ,  1-B ) :   0.8469 B(  0-N ,  7-H ) :   0.9594 B(  0-N ,  8-H ) :   0.9677
B(  0-N , 11-H ) :   0.4442 B(  1-B ,  3-B ) :   0.6588 B(  1-B ,  5-H ) :   0.9567
B(  1-B ,  6-H ) :   0.9216 B(  1-B , 11-H ) :   0.2855 B(  2-N ,  3-B ) :   1.6275
B(  2-N ,  4-H ) :   0.9467 B(  2-N ,  9-H ) :   0.9538 B(  3-B , 10-H ) :   0.9334
B(  3-B , 11-H ) :   0.2651

Dispersion correction           -0.012296171
FINAL SINGLE POINT ENERGY      -163.778923479436
Dispersion correction             ... done (  0.1 sec)

DIPOLE MOMENT
-------------

Method             : SCF
Type of density    : Electron Density
Multiplicity       :   1
Irrep              :   0
Energy             :  -163.7666273083380304 Eh
Basis              : AO
                                X                 Y                 Z
Electronic contribution:     -0.750831002      -1.088071366       0.227286059
Nuclear contribution   :      0.674381283       0.937695557       0.169391474
                        -----------------------------------------
Total Dipole Moment    :     -0.076449720      -0.150375809       0.396677533
                        -----------------------------------------
Magnitude (a.u.)       :      0.431057431
Magnitude (Debye)      :      1.095660916

Rotational constants in cm-1:             0.761688             0.110537             0.104240
Rotational constants in MHz :         22834.825806          3313.805384          3125.039789

                             ****ORCA TERMINATED NORMALLY****
TOTAL RUN TIME: 0 days 0 hours 0 minutes 11 seconds 67 msec
