                         Program Version 6.1.0  -  RELEASE   -
|  1> ! B3LYP def2-SVP d3 EnGrad
|  2> %pal nprocs 6 end
|  3> *xyz 0 1
|  4> C   -0.99223262466484 -1.56270936148097 0.19410519661694
|  5> C   -1.78742429237611 -0.69686988584292 -0.45618805286074
|  6> C   -1.86717524526103 0.75764635927286 -0.24736685792134
|  7> C   -1.10615591236669 1.49642981969856 0.57759085941002
|  8> C   2.15560340622757 0.01678718016848 0.97073042870363
|  9> C   2.11241693345628 0.1477985806777 -0.47207904529699
| 10> H   -2.46352057836625 -1.09158543374871 -1.22435713737714
| 11> H   -0.29327609581534 -1.24030737682243 0.97308443428209
| 12> H   -1.01857947627654 -2.62979330782932 -0.04473539660146
| 13> H   3.23153203347561 -0.09761866163293 1.25139558765794
| 14> H   2.08716545394257 -0.98121045479932 -0.57165516332856
| 15> H   1.15509861183683 0.48590896483086 -0.90057941586578
| 16> H   2.99024726961961 0.49256873321532 -1.05253551311066
| 17> H   -1.25876945223832 2.57672080400084 0.65444610342162
| 18> H   -0.30874512254723 1.05778020673562 1.18760373155348
| 19> H   -2.63618490864614 1.26845383355637 -0.83945975928306
| 20> *
| 21>
| 22>                          ****END OF INPUT****

CARTESIAN COORDINATES (ANGSTROEM)
---------------------------------
  C     -0.992233   -1.562709    0.194105
  C     -1.787424   -0.696870   -0.456188
  C     -1.867175    0.757646   -0.247367
  C     -1.106156    1.496430    0.577591
  C      2.155603    0.016787    0.970730
  C      2.112417    0.147799   -0.472079
  H     -2.463521   -1.091585   -1.224357
  H     -0.293276   -1.240307    0.973084
  H     -1.018579   -2.629793   -0.044735
  H      3.231532   -0.097619    1.251396
  H      2.087165   -0.981210   -0.571655
  H      1.155099    0.485909   -0.900579
  H      2.990247    0.492569   -1.052536
  H     -1.258769    2.576721    0.654446
  H     -0.308745    1.057780    1.187604
  H     -2.636185    1.268454   -0.839460

 Total Charge           Charge          ....    0
 Multiplicity           Mult            ....    1
 Number of Electrons    NEL             ....   46
 Basis Dimension        Dim             ....  134

ORBITAL ENERGIES
----------------

  NO   OCC          E(Eh)            E(eV)
   0   2.0000     -10.222334      -278.1638
   1   2.0000     -10.206712      -277.7387
   2   2.0000     -10.184413      -277.1320
   3   2.0000     -10.183506      -277.1073
   4   2.0000     -10.175121      -276.8791
   5   2.0000     -10.174088      -276.8510
   6   2.0000      -0.784409       -21.3448
   7   2.0000      -0.775537       -21.1034
   8   2.0000      -0.708467       -19.2784
   9   2.0000      -0.602353       -16.3908
  10   2.0000      -0.570581       -15.5263
  11   2.0000      -0.509510       -13.8645
  12   2.0000      -0.479653       -13.0520
  13   2.0000      -0.452346       -12.3090
  14   2.0000      -0.429929       -11.6990
  15   2.0000      -0.423481       -11.5235
  16   2.0000      -0.406317       -11.0564
  17   2.0000      -0.374426       -10.1887
  18   2.0000      -0.349554        -9.5118
  19   2.0000      -0.339460        -9.2372
  20   2.0000      -0.314264        -8.5515
  21   2.0000      -0.225535        -6.1371
  22   2.0000      -0.217616        -5.9216
  23   0.0000      -0.082305        -2.2396
  24   0.0000      -0.032289        -0.8786
  25   0.0000       0.062854         1.7103
  26   0.0000       0.075330         2.0498
  27   0.0000       0.088927         2.4198

MULLIKEN ATOMIC CHARGES
-----------------------
   0 C :   -0.042332
   1 C :   -0.021559
   2 C :   -0.024440
   3 C :   -0.037918
   4 C :   -0.145223
   5 C :   -0.032429
   6 H :   -0.012276
   7 H :    0.042889
   8 H :    0.015513
   9 H :    0.029191
  10 H :    0.068111
  11 H :    0.067915
  12 H :    0.036885
  13 H :    0.016771
  14 H :    0.051422
  15 H :   -0.012521
Sum of atomic charges:   -0.0000000

LOEWDIN ATOMIC CHARGES
----------------------
   0 C :   -0.045588
   1 C :   -0.041957
   2 C :   -0.044563
   3 C :   -0.038747
   4 C :   -0.051656
   5 C :   -0.093985
   6 H :    0.023534
   7 H :    0.025573
   8 H :    0.021809
   9 H :    0.002227
  10 H :    0.108281
  11 H :    0.038385
  12 H :    0.022254
  13 H :    0.022733
  14 H :    0.028294
  15 H :    0.023406

  Mayer bond orders larger than 0.100000
B(  0-C ,  1-C ) :   1.9441 B(  0-C ,  3-C ) :   0.1132 B(  0-C ,  7-H ) :   0.9366
B(  0-C ,  8-H ) :   0.9469 B(  1-C ,  2-C ) :   1.1011 B(  1-C ,  6-H ) :   0.9595
B(  2-C ,  3-C ) :   1.9372 B(  2-C , 15-H ) :   0.9594 B(  3-C , 13-H ) :   0.9474
B(  3-C , 14-H ) :   0.9362 B(  4-C ,  5-C ) :   1.1647 B(  4-C ,  9-H ) :   0.9108
B(  4-C , 10-H ) :   0.1710 B(  5-C , 10-H ) :   0.8297 B(  5-C , 11-H ) :   0.9490
B(  5-C , 12-H ) :   0.9347

Dispersion correction           -0.019764091
FINAL SINGLE POINT ENERGY      -234.139872167595
Dispersion correction             ... done (  0.1 sec)

DIPOLE MOMENT
-------------

Method             : SCF
Type of density    : Electron Density
Multiplicity       :   1
Irrep              :   0
Energy             :  -234.1201080762016318 Eh
Basis              : AO
                                X                 Y                 Z
Electronic contribution:     -2.618798409       0.294757915       0.529941668
Nuclear contribution   :      3.259224361      -0.349156534      -1.244002798
                        -----------------------------------------
Total Dipole Moment    :      0.640425952      -0.054398619      -0.714061130
                        -----------------------------------------
Magnitude (a.u.)       :      0.960722597
Magnitude (Debye)      :      2.441962775

Rotational constants in cm-1:             0.143209             0.059584             0.048516
Rotational constants in MHz :          4293.287688          1786.279316          1454.466415

                             ****ORCA TERMINATED NORMALLY****
TOTAL RUN TIME: 0 days 0 hours 0 minutes 17 seconds 141 msec
