                         Program Version 6.1.0  -  RELEASE   -
|  1> ! B3LYP def2-SVP d3 EnGrad
|  2> %pal nprocs 6 end
|  3> *xyz 0 1
|  4> C   -1.50859003416223 -2.95204524326676 -0.40284377730503
|  5> C   -1.39054791705099 -1.45990288634844 -0.27722219805635
|  6> C   -1.82598210354383 -0.71099748273095 0.90833907720139
|  7> C   -2.26320707957707 0.73813078494659 0.82992535378248
|  8> O   -1.83857639599173 1.39889414406667 -0.33085287672911
|  9> Cl   1.40144744514899 0.10513479892025 -1.68925176087448
| 10> S   1.37905425821849 0.83701485271238 0.26054237711264
| 11> O   -0.43357944426049 -0.98079015312425 0.68864454500152
| 12> Cl   2.74680550142418 2.4183918509482 0.12695861440855
| 13> H   -1.54041498916634 -3.43230830765345 0.58663155578321
| 14> H   -0.64680629740758 -3.35703798030545 -0.95720836770806
| 15> H   -2.42278602613202 -3.21879394851926 -0.95785687239169
| 16> H   -1.36238895384849 -0.88944187573529 -1.21328660203895
| 17> H   -2.25179657906016 -1.27098930268433 1.75482603390118
| 18> H   -3.36685814673961 0.759687014233 0.84201249425192
| 19> H   -1.92571588410884 1.25417832691646 1.75311256138889
| 20> H   -0.87881235374226 1.53036040762463 -0.26331015772809
| 21> *
| 22>
| 23>                          ****END OF INPUT****

CARTESIAN COORDINATES (ANGSTROEM)
---------------------------------
  C     -1.508590   -2.952045   -0.402844
  C     -1.390548   -1.459903   -0.277222
  C     -1.825982   -0.710997    0.908339
  C     -2.263207    0.738131    0.829925
  O     -1.838576    1.398894   -0.330853
  Cl     1.401447    0.105135   -1.689252
  S      1.379054    0.837015    0.260542
  O     -0.433579   -0.980790    0.688645
  Cl     2.746806    2.418392    0.126959
  H     -1.540415   -3.432308    0.586632
  H     -0.646806   -3.357038   -0.957208
  H     -2.422786   -3.218794   -0.957857
  H     -1.362389   -0.889442   -1.213287
  H     -2.251797   -1.270989    1.754826
  H     -3.366858    0.759687    0.842012
  H     -1.925716    1.254178    1.753113
  H     -0.878812    1.530360   -0.263310

 Total Charge           Charge          ....    0
 Multiplicity           Mult            ....    1
 Number of Electrons    NEL             ....   98
 Basis Dimension        Dim             ....  178

ORBITAL ENERGIES
----------------

  NO   OCC          E(Eh)            E(eV)
   0   2.0000    -101.525735     -2762.6557
   1   2.0000    -101.512846     -2762.3050
   2   2.0000     -88.938088     -2420.1284
   3   2.0000     -19.159748      -521.3633
   4   2.0000     -19.129463      -520.5392
   5   2.0000     -10.246578      -278.8236
   6   2.0000     -10.246294      -278.8158
   7   2.0000     -10.242316      -278.7076
   8   2.0000     -10.194408      -277.4039
   9   2.0000      -9.479401      -257.9476
  10   2.0000      -9.466978      -257.6096
  11   2.0000      -8.026507      -218.4124
  12   2.0000      -7.249748      -197.2757
  13   2.0000      -7.238449      -196.9682
  14   2.0000      -7.237173      -196.9335
  15   2.0000      -7.236765      -196.9224
  16   2.0000      -7.226387      -196.6400
  17   2.0000      -7.224935      -196.6005
  18   2.0000      -5.997889      -163.2108
  19   2.0000      -5.994730      -163.1249
  20   2.0000      -5.980627      -162.7411
  21   2.0000      -1.078604       -29.3503
  22   2.0000      -1.009778       -27.4774
  23   2.0000      -0.889780       -24.2121
  24   2.0000      -0.825555       -22.4645
  25   2.0000      -0.746692       -20.3185
  26   2.0000      -0.729286       -19.8449
  27   2.0000      -0.675224       -18.3738
  28   2.0000      -0.624844       -17.0029
  29   2.0000      -0.592650       -16.1268
  30   2.0000      -0.529114       -14.3979
  31   2.0000      -0.501235       -13.6393
  32   2.0000      -0.478555       -13.0221
  33   2.0000      -0.451858       -12.2957
  34   2.0000      -0.445217       -12.1150
  35   2.0000      -0.428058       -11.6480
  36   2.0000      -0.421920       -11.4810
  37   2.0000      -0.406294       -11.0558
  38   2.0000      -0.385182       -10.4813
  39   2.0000      -0.383275       -10.4295
  40   2.0000      -0.378607       -10.3024
  41   2.0000      -0.342207        -9.3119
  42   2.0000      -0.332395        -9.0449
  43   2.0000      -0.328966        -8.9516
  44   2.0000      -0.317727        -8.6458
  45   2.0000      -0.308545        -8.3959
  46   2.0000      -0.299535        -8.1508
  47   2.0000      -0.269264        -7.3271
  48   2.0000      -0.246739        -6.7141
  49   0.0000      -0.091342        -2.4856
  50   0.0000      -0.069622        -1.8945
  51   0.0000       0.061385         1.6704
  52   0.0000       0.076209         2.0737
  53   0.0000       0.083276         2.2661

MULLIKEN ATOMIC CHARGES
-----------------------
   0 C :    0.096077
   1 C :    0.037781
   2 C :    0.019411
   3 C :    0.276444
   4 O :   -0.312850
   5 Cl:   -0.103681
   6 S :    0.211727
   7 O :   -0.358923
   8 Cl:   -0.141374
   9 H :    0.008940
  10 H :    0.027585
  11 H :    0.024675
  12 H :    0.022499
  13 H :    0.011703
  14 H :    0.012147
  15 H :   -0.000594
  16 H :    0.168434
Sum of atomic charges:    0.0000000

LOEWDIN ATOMIC CHARGES
----------------------
   0 C :   -0.054724
   1 C :    0.060551
   2 C :    0.039339
   3 C :    0.064478
   4 O :   -0.133107
   5 Cl:   -0.062290
   6 S :    0.187612
   7 O :   -0.198088
   8 Cl:   -0.109835
   9 H :    0.030180
  10 H :    0.035231
  11 H :    0.035525
  12 H :    0.011434
  13 H :    0.018209
  14 H :    0.027150
  15 H :    0.011711
  16 H :    0.036623

  Mayer bond orders larger than 0.100000
B(  0-C ,  1-C ) :   1.0801 B(  0-C ,  9-H ) :   0.9505 B(  0-C , 10-H ) :   0.9544
B(  0-C , 11-H ) :   0.9573 B(  1-C ,  2-C ) :   1.0420 B(  1-C ,  7-O ) :   0.9150
B(  1-C , 12-H ) :   0.9213 B(  2-C ,  3-C ) :   1.0021 B(  2-C ,  7-O ) :   0.9355
B(  2-C , 13-H ) :   0.9242 B(  3-C ,  4-O ) :   1.0714 B(  3-C , 14-H ) :   0.9384
B(  3-C , 15-H ) :   0.9343 B(  4-O , 16-H ) :   0.9550 B(  5-Cl,  6-S ) :   1.0081
B(  6-S ,  8-Cl) :   0.9799

Dispersion correction           -0.030260029
FINAL SINGLE POINT ENERGY     -1625.273414460619
Dispersion correction             ... done (  0.0 sec)

DIPOLE MOMENT
-------------

Method             : SCF
Type of density    : Electron Density
Multiplicity       :   1
Irrep              :   0
Energy             : -1625.2431544319520071 Eh
Basis              : AO
                                X                 Y                 Z
Electronic contribution:     19.842810358      12.362165891      -3.821796147
Nuclear contribution   :    -20.572203809     -13.051539760       4.226507498
                        -----------------------------------------
Total Dipole Moment    :     -0.729393451      -0.689373869       0.404711351
                        -----------------------------------------
Magnitude (a.u.)       :      1.082147132
Magnitude (Debye)      :      2.750599415

Rotational constants in cm-1:             0.048978             0.017697             0.015171
Rotational constants in MHz :          1468.333446           530.541102           454.819599

                             ****ORCA TERMINATED NORMALLY****
TOTAL RUN TIME: 0 days 0 hours 0 minutes 26 seconds 74 msec
