                         Program Version 6.1.0  -  RELEASE   -
|  1> ! B3LYP def2-SVP d3 EnGrad
|  2> %pal nprocs 6 end
|  3> *xyz 0 1
|  4> C   1.72981392230478 0.1147961831927 0.3410586655892
|  5> C   0.34349284457621 0.67550494366104 0.3728887433083
|  6> C   -0.78291522912982 0.04317961265752 -0.2543988216617
|  7> C   -0.61883963157771 -1.08400797304567 -1.24772839722891
|  8> O   -1.88097334509133 0.89360184397069 -0.51822157973467
|  9> H   2.17407435565554 0.31356949884404 -0.65181916486414
| 10> H   1.72274787108384 -0.97348966011275 0.49224615681762
| 11> H   2.36991523900369 0.56793561667401 1.10954444216161
| 12> H   -0.35503124920193 -0.71418608123155 -2.26104853727997
| 13> H   -1.56380686344936 -1.64107340351389 -1.3417499852443
| 14> H   0.16172047884738 -1.79889803016086 -0.94810860049505
| 15> H   -1.77594730957483 1.25512418594265 -1.41175007111117
| 16> H   0.25221930581579 1.75281659551912 0.55385295851096
| 17> H   -0.71887392434042 0.8087923107499 2.52434477550517
| 18> O   -0.19336687062834 0.09344668773877 2.12620012834154
| 19> H   -0.86422959429346 -0.30711233088571 1.11468928738549
| 20> *
| 21>
| 22>                          ****END OF INPUT****

CARTESIAN COORDINATES (ANGSTROEM)
---------------------------------
  C      1.729814    0.114796    0.341059
  C      0.343493    0.675505    0.372889
  C     -0.782915    0.043180   -0.254399
  C     -0.618840   -1.084008   -1.247728
  O     -1.880973    0.893602   -0.518222
  H      2.174074    0.313569   -0.651819
  H      1.722748   -0.973490    0.492246
  H      2.369915    0.567936    1.109544
  H     -0.355031   -0.714186   -2.261049
  H     -1.563807   -1.641073   -1.341750
  H      0.161720   -1.798898   -0.948109
  H     -1.775947    1.255124   -1.411750
  H      0.252219    1.752817    0.553853
  H     -0.718874    0.808792    2.524345
  O     -0.193367    0.093447    2.126200
  H     -0.864230   -0.307112    1.114689

 Total Charge           Charge          ....    0
 Multiplicity           Mult            ....    1
 Number of Electrons    NEL             ....   50
 Basis Dimension        Dim             ....  134

ORBITAL ENERGIES
----------------

  NO   OCC          E(Eh)            E(eV)
   0   2.0000     -19.118579      -520.2430
   1   2.0000     -19.105684      -519.8921
   2   2.0000     -10.246996      -278.8349
   3   2.0000     -10.199353      -277.5385
   4   2.0000     -10.194822      -277.4152
   5   2.0000     -10.178644      -276.9750
   6   2.0000      -0.996085       -27.1048
   7   2.0000      -0.942353       -25.6427
   8   2.0000      -0.786225       -21.3943
   9   2.0000      -0.711966       -19.3736
  10   2.0000      -0.656291       -17.8586
  11   2.0000      -0.550991       -14.9932
  12   2.0000      -0.509414       -13.8619
  13   2.0000      -0.480982       -13.0882
  14   2.0000      -0.442470       -12.0402
  15   2.0000      -0.421105       -11.4589
  16   2.0000      -0.412426       -11.2227
  17   2.0000      -0.406454       -11.0602
  18   2.0000      -0.384457       -10.4616
  19   2.0000      -0.371822       -10.1178
  20   2.0000      -0.354059        -9.6344
  21   2.0000      -0.330394        -8.9905
  22   2.0000      -0.308105        -8.3840
  23   2.0000      -0.271742        -7.3945
  24   2.0000      -0.190554        -5.1852
  25   0.0000      -0.016433        -0.4472
  26   0.0000       0.053081         1.4444
  27   0.0000       0.071531         1.9465
  28   0.0000       0.083301         2.2667
  29   0.0000       0.101215         2.7542

MULLIKEN ATOMIC CHARGES
-----------------------
   0 C :    0.102819
   1 C :    0.003254
   2 C :   -0.109981
   3 C :    0.080628
   4 O :   -0.309382
   5 H :    0.024383
   6 H :    0.030364
   7 H :    0.026528
   8 H :   -0.009357
   9 H :    0.020336
  10 H :   -0.003937
  11 H :    0.152630
  12 H :    0.014719
  13 H :    0.146006
  14 O :   -0.352757
  15 H :    0.183748
Sum of atomic charges:   -0.0000000

LOEWDIN ATOMIC CHARGES
----------------------
   0 C :   -0.048089
   1 C :    0.136330
   2 C :   -0.089501
   3 C :   -0.065158
   4 O :   -0.137946
   5 H :    0.037692
   6 H :    0.038445
   7 H :    0.035436
   8 H :    0.010169
   9 H :    0.029000
  10 H :    0.025560
  11 H :    0.067193
  12 H :    0.027450
  13 H :    0.054505
  14 O :   -0.203032
  15 H :    0.081945

  Mayer bond orders larger than 0.100000
B(  0-C ,  1-C ) :   1.0935 B(  0-C ,  5-H ) :   0.9393 B(  0-C ,  6-H ) :   0.9467
B(  0-C ,  7-H ) :   0.9513 B(  1-C ,  2-C ) :   1.2017 B(  1-C , 12-H ) :   0.9306
B(  1-C , 14-O ) :   0.5647 B(  2-C ,  3-C ) :   1.0939 B(  2-C ,  4-O ) :   1.0215
B(  2-C , 15-H ) :   0.4252 B(  3-C ,  8-H ) :   0.9477 B(  3-C ,  9-H ) :   0.9574
B(  3-C , 10-H ) :   0.9417 B(  4-O , 11-H ) :   0.9823 B( 13-H , 14-O ) :   0.9860
B( 14-O , 15-H ) :   0.5188

Dispersion correction           -0.019974693
FINAL SINGLE POINT ENERGY      -308.377713914790
Dispersion correction             ... done (  0.1 sec)

DIPOLE MOMENT
-------------

Method             : SCF
Type of density    : Electron Density
Multiplicity       :   1
Irrep              :   0
Energy             :  -308.3577392216294584 Eh
Basis              : AO
                                X                 Y                 Z
Electronic contribution:     -3.178939915       2.435116358       1.734138851
Nuclear contribution   :      3.761117582      -1.933743943      -2.356972223
                        -----------------------------------------
Total Dipole Moment    :      0.582177667       0.501372415      -0.622833372
                        -----------------------------------------
Magnitude (a.u.)       :      0.989053358
Magnitude (Debye)      :      2.513973846

Rotational constants in cm-1:             0.135423             0.088180             0.068134
Rotational constants in MHz :          4059.884152          2643.556022          2042.607923

                             ****ORCA TERMINATED NORMALLY****
TOTAL RUN TIME: 0 days 0 hours 0 minutes 19 seconds 0 msec
