                         Program Version 6.1.0  -  RELEASE   -
|  1> ! B3LYP def2-SVP d3 EnGrad
|  2> %pal nprocs 6 end
|  3> *xyz 0 1
|  4> N   1.37086845227098 -1.16513402540779 0.01444132596663
|  5> B   1.72329245520395 0.40558369152404 -0.32044605229163
|  6> B   -1.78809263048812 -0.10649353234667 0.16182320971013
|  7> N   -2.32711802382183 1.16557542059241 0.24186464533984
|  8> H   0.40917630878918 -1.24574542170892 0.36259955375023
|  9> H   1.99665027616697 -1.54582462550893 0.72738421999744
| 10> H   1.45116252963498 -1.75373223488296 -0.81764673968941
| 11> H   1.60619306742968 0.9981554417995 0.7445702837262
| 12> H   2.86928254974295 0.40371011190515 -0.75164403523939
| 13> H   0.89486333999324 0.75089431638167 -1.15333191388394
| 14> H   -1.91445876082318 -0.75859884452725 -0.84748730711707
| 15> H   -1.21463712951145 -0.55768435199565 1.13061819623777
| 16> H   -2.78919778664942 1.61987394516833 -0.53787096711626
| 17> H   -2.20164639102493 1.76907419413181 1.04670209855649
| 18> *
| 19>
| 20>                          ****END OF INPUT****

CARTESIAN COORDINATES (ANGSTROEM)
---------------------------------
  N      1.370868   -1.165134    0.014441
  B      1.723292    0.405584   -0.320446
  B     -1.788093   -0.106494    0.161823
  N     -2.327118    1.165575    0.241865
  H      0.409176   -1.245745    0.362600
  H      1.996650   -1.545825    0.727384
  H      1.451163   -1.753732   -0.817647
  H      1.606193    0.998155    0.744570
  H      2.869283    0.403710   -0.751644
  H      0.894863    0.750894   -1.153332
  H     -1.914459   -0.758599   -0.847487
  H     -1.214637   -0.557684    1.130618
  H     -2.789198    1.619874   -0.537871
  H     -2.201646    1.769074    1.046702

 Total Charge           Charge          ....    0
 Multiplicity           Mult            ....    1
 Number of Electrons    NEL             ....   34
 Basis Dimension        Dim             ....  106

ORBITAL ENERGIES
----------------

  NO   OCC          E(Eh)            E(eV)
   0   2.0000     -14.394189      -391.6858
   1   2.0000     -14.332370      -390.0036
   2   2.0000      -6.751631      -183.7212
   3   2.0000      -6.680885      -181.7961
   4   2.0000      -0.924329       -25.1523
   5   2.0000      -0.858238       -23.3538
   6   2.0000      -0.541999       -14.7485
   7   2.0000      -0.536573       -14.6009
   8   2.0000      -0.519624       -14.1397
   9   2.0000      -0.512072       -13.9342
  10   2.0000      -0.497169       -13.5287
  11   2.0000      -0.398801       -10.8519
  12   2.0000      -0.342061        -9.3080
  13   2.0000      -0.324614        -8.8332
  14   2.0000      -0.303434        -8.2569
  15   2.0000      -0.261719        -7.1217
  16   2.0000      -0.260920        -7.1000
  17   0.0000       0.002747         0.0748
  18   0.0000       0.035003         0.9525
  19   0.0000       0.055623         1.5136
  20   0.0000       0.092266         2.5107
  21   0.0000       0.102921         2.8006

MULLIKEN ATOMIC CHARGES
-----------------------
   0 N :    0.031003
   1 B :   -0.156874
   2 B :   -0.041369
   3 N :   -0.039563
   4 H :    0.128602
   5 H :    0.142351
   6 H :    0.142439
   7 H :   -0.108774
   8 H :   -0.094194
   9 H :   -0.097879
  10 H :   -0.061581
  11 H :   -0.093496
  12 H :    0.123255
  13 H :    0.126078
Sum of atomic charges:    0.0000000

LOEWDIN ATOMIC CHARGES
----------------------
   0 N :    0.227195
   1 B :   -0.369373
   2 B :   -0.135860
   3 N :    0.071177
   4 H :    0.100110
   5 H :    0.104601
   6 H :    0.105390
   7 H :   -0.060969
   8 H :   -0.060116
   9 H :   -0.056699
  10 H :   -0.045852
  11 H :   -0.052380
  12 H :    0.086173
  13 H :    0.086602

  Mayer bond orders larger than 0.100000
B(  0-N ,  1-B ) :   0.7727 B(  0-N ,  4-H ) :   0.9555 B(  0-N ,  5-H ) :   0.9648
B(  0-N ,  6-H ) :   0.9686 B(  1-B ,  7-H ) :   0.9714 B(  1-B ,  8-H ) :   0.9689
B(  1-B ,  9-H ) :   0.9518 B(  2-B ,  3-N ) :   1.6450 B(  2-B , 10-H ) :   0.9652
B(  2-B , 11-H ) :   0.9158 B(  3-N , 12-H ) :   0.9578 B(  3-N , 13-H ) :   0.9544

Dispersion correction           -0.012575073
FINAL SINGLE POINT ENERGY      -165.033108097773
Dispersion correction             ... done (  0.1 sec)

DIPOLE MOMENT
-------------

Method             : SCF
Type of density    : Electron Density
Multiplicity       :   1
Irrep              :   0
Energy             :  -165.0205330244893673 Eh
Basis              : AO
                                X                 Y                 Z
Electronic contribution:     -3.678433892      -0.248368480       0.659900837
Nuclear contribution   :      2.795487330      -0.911168564      -0.203554800
                        -----------------------------------------
Total Dipole Moment    :     -0.882946562      -1.159537044       0.456346037
                        -----------------------------------------
Magnitude (a.u.)       :      1.527210691
Magnitude (Debye)      :      3.881861079

Rotational constants in cm-1:             0.399136             0.072758             0.065003
Rotational constants in MHz :         11965.800386          2181.223029          1948.730922

                             ****ORCA TERMINATED NORMALLY****
TOTAL RUN TIME: 0 days 0 hours 0 minutes 12 seconds 117 msec
