                         Program Version 6.1.0  -  RELEASE   -
|  1> ! B3LYP def2-SVP d3 EnGrad
|  2> %pal nprocs 6 end
|  3> *xyz 0 2
|  4> C   -1.83983424533436 0.83185416046228 -1.22463787825754
|  5> C   -1.43549057351145 0.93742069804419 0.06137476109955
|  6> C   -1.61903042050896 -0.21461917542727 1.07533136462801
|  7> C   -1.81382407310192 -1.61062683661452 0.39244332632542
|  8> C   -2.77232468680431 -1.50521743850372 -0.79848180882774
|  9> C   -2.34605450607215 -0.45957885974075 -1.82435824283705
| 10> H   -2.88074227462706 -2.49152769570484 -1.27983794951613
| 11> H   -3.77451542846477 -1.23867852077263 -0.42551621350984
| 12> H   -1.5614925887166 -0.86013148911122 -2.49271041954646
| 13> H   -3.19508459093269 -0.23297223732757 -2.49322127109015
| 14> C   -1.78524546033652 1.96646376005089 -2.21930492792222
| 15> H   -1.69742266665935 2.95740902601372 -1.75603850960398
| 16> H   -0.93390751802374 1.84648248946212 -2.91479212090267
| 17> H   -2.69491124885522 1.96889934048373 -2.84342536589105
| 18> C   -0.51423588433141 -2.38559525233147 0.07455618946885
| 19> C   -0.91027993825202 2.26152023751558 0.60809574843472
| 20> C   0.50178373798189 -1.70749437584073 -0.85735218014219
| 21> H   -0.0283842897187 -2.61529428400579 1.03175633596129
| 22> C   0.44761804383395 2.7604367805555 0.04617738598853
| 23> C   1.64132986164703 1.85579194526486 0.2577699980777
| 24> H   0.65224602410809 3.74108199795835 0.51500195166357
| 25> C   -0.4541149424326 -0.30439015453478 2.08168521395441
| 26> H   -0.43537427018924 0.56003859136863 2.75958325763244
| 27> H   -0.57512472949301 -1.19902259435351 2.71244708182502
| 28> C   -2.89547002266177 0.11385507300495 1.89077402624813
| 29> H   -2.8248592375377 1.11327783081355 2.34816100825277
| 30> H   -3.79333648876959 0.10502038541105 1.25622061502092
| 31> H   -3.03693802586932 -0.61674379255476 2.70475912979936
| 32> H   -1.64978053735176 3.05489911841594 0.40199540909504
| 33> H   -0.8449322884119 2.21583710578725 1.70338327241509
| 34> H   0.33991243609642 2.95041546844263 -1.03025155039026
| 35> C   2.13161328367176 1.14550277783979 -0.77462953546197
| 36> H   1.62715625188483 1.26988561026342 -1.74205197840219
| 37> C   3.28955460706507 0.19102073490779 -0.80160695113493
| 38> H   4.10512322086761 0.634567624812 -1.40489340097083
| 39> H   3.70416166181823 0.03532638890025 0.20663201969852
| 40> C   2.93548399613216 -1.18871456783591 -1.43044906476281
| 41> H   2.53350842459049 -1.00921497122101 -2.44507588501585
| 42> H   3.87820343845184 -1.75036021549626 -1.55891298725707
| 43> C   1.95994301863711 -1.99565395532577 -0.62742022980605
| 44> H   0.36942032985335 -0.61419749960184 -0.78871416619921
| 45> H   0.26075818936631 -1.93657602626664 -1.91408717179781
| 46> C   2.24239211620315 1.86989608859733 1.64020417427276
| 47> H   2.81859103476506 2.80089081836094 1.79283654123871
| 48> H   1.4636266560033 1.85484130601358 2.41796458521875
| 49> H   2.92084691815391 1.02555667116611 1.82524102722124
| 50> C   2.45949315493181 -2.72335806785389 0.57939060317158
| 51> H   1.91179500318755 -3.66292517224791 0.76525133328012
| 52> H   3.52802832543491 -2.97340374892644 0.47505427228196
| 53> H   2.36433452164047 -2.12612742278863 1.51307549138734
| 54> H   -0.80443894633793 -3.36714320724263 -0.3395261222275
| 55> H   -2.32259118238118 -2.23452479185523 1.14921386060978
| 56> H   0.5230898093609 -0.3637526764307 1.58690294720191
| 57> *
| 58>
| 59>                          ****END OF INPUT****

CARTESIAN COORDINATES (ANGSTROEM)
---------------------------------
  C     -1.839834    0.831854   -1.224638
  C     -1.435491    0.937421    0.061375
  C     -1.619030   -0.214619    1.075331
  C     -1.813824   -1.610627    0.392443
  C     -2.772325   -1.505217   -0.798482
  C     -2.346055   -0.459579   -1.824358
  H     -2.880742   -2.491528   -1.279838
  H     -3.774515   -1.238679   -0.425516
  H     -1.561493   -0.860131   -2.492710
  H     -3.195085   -0.232972   -2.493221
  C     -1.785245    1.966464   -2.219305
  H     -1.697423    2.957409   -1.756039
  H     -0.933908    1.846482   -2.914792
  H     -2.694911    1.968899   -2.843425
  C     -0.514236   -2.385595    0.074556
  C     -0.910280    2.261520    0.608096
  C      0.501784   -1.707494   -0.857352
  H     -0.028384   -2.615294    1.031756
  C      0.447618    2.760437    0.046177
  C      1.641330    1.855792    0.257770
  H      0.652246    3.741082    0.515002
  C     -0.454115   -0.304390    2.081685
  H     -0.435374    0.560039    2.759583
  H     -0.575125   -1.199023    2.712447
  C     -2.895470    0.113855    1.890774
  H     -2.824859    1.113278    2.348161
  H     -3.793336    0.105020    1.256221
  H     -3.036938   -0.616744    2.704759
  H     -1.649781    3.054899    0.401995
  H     -0.844932    2.215837    1.703383
  H      0.339912    2.950415   -1.030252
  C      2.131613    1.145503   -0.774630
  H      1.627156    1.269886   -1.742052
  C      3.289555    0.191021   -0.801607
  H      4.105123    0.634568   -1.404893
  H      3.704162    0.035326    0.206632
  C      2.935484   -1.188715   -1.430449
  H      2.533508   -1.009215   -2.445076
  H      3.878203   -1.750360   -1.558913
  C      1.959943   -1.995654   -0.627420
  H      0.369420   -0.614197   -0.788714
  H      0.260758   -1.936576   -1.914087
  C      2.242392    1.869896    1.640204
  H      2.818591    2.800891    1.792837
  H      1.463627    1.854841    2.417965
  H      2.920847    1.025557    1.825241
  C      2.459493   -2.723358    0.579391
  H      1.911795   -3.662925    0.765251
  H      3.528028   -2.973404    0.475054
  H      2.364335   -2.126127    1.513075
  H     -0.804439   -3.367143   -0.339526
  H     -2.322591   -2.234525    1.149214
  H      0.523090   -0.363753    1.586903

 Total Charge           Charge          ....    0
 Multiplicity           Mult            ....    2
 Number of Electrons    NEL             ....  153
 Basis Dimension        Dim             ....  445

ORBITAL ENERGIES
----------------
                 SPIN UP ORBITALS
  NO   OCC          E(Eh)            E(eV)
   0   1.0000     -10.189662      -277.2748
   1   1.0000     -10.179818      -277.0069
   2   1.0000     -10.178878      -276.9813
   3   1.0000     -10.178719      -276.9770
   4   1.0000     -10.177594      -276.9464
   5   1.0000     -10.176976      -276.9296
   6   1.0000     -10.175644      -276.8933
   7   1.0000     -10.174988      -276.8755
   8   1.0000     -10.174565      -276.8640
   9   1.0000     -10.173573      -276.8370
  10   1.0000     -10.173295      -276.8294
  11   1.0000     -10.172916      -276.8191
  12   1.0000     -10.172564      -276.8096
  13   1.0000     -10.171569      -276.7825
  14   1.0000     -10.169952      -276.7385
  15   1.0000     -10.169441      -276.7245
  16   1.0000     -10.168765      -276.7062
  17   1.0000     -10.167318      -276.6668
  18   1.0000     -10.167250      -276.6649
  19   1.0000     -10.164196      -276.5818
  20   1.0000      -0.839833       -22.8530
  21   1.0000      -0.809075       -22.0160
  22   1.0000      -0.798685       -21.7333
  23   1.0000      -0.774263       -21.0688
  24   1.0000      -0.758947       -20.6520
  25   1.0000      -0.746524       -20.3140
  26   1.0000      -0.709332       -19.3019
  27   1.0000      -0.706218       -19.2172
  28   1.0000      -0.672772       -18.3071
  29   1.0000      -0.668079       -18.1793
  30   1.0000      -0.665573       -18.1112
  31   1.0000      -0.663868       -18.0648
  32   1.0000      -0.627719       -17.0811
  33   1.0000      -0.612371       -16.6635
  34   1.0000      -0.578072       -15.7301
  35   1.0000      -0.563867       -15.3436
  36   1.0000      -0.542212       -14.7543
  37   1.0000      -0.514374       -13.9968
  38   1.0000      -0.505305       -13.7500
  39   1.0000      -0.476933       -12.9780
  40   1.0000      -0.472896       -12.8681
  41   1.0000      -0.464491       -12.6394
  42   1.0000      -0.461057       -12.5460
  43   1.0000      -0.444255       -12.0888
  44   1.0000      -0.442072       -12.0294
  45   1.0000      -0.436126       -11.8676
  46   1.0000      -0.427934       -11.6447
  47   1.0000      -0.424006       -11.5378
  48   1.0000      -0.417629       -11.3643
  49   1.0000      -0.409531       -11.1439
  50   1.0000      -0.404583       -11.0093
  51   1.0000      -0.397998       -10.8301
  52   1.0000      -0.393829       -10.7166
  53   1.0000      -0.390442       -10.6245
  54   1.0000      -0.386693       -10.5224
  55   1.0000      -0.382627       -10.4118
  56   1.0000      -0.377148       -10.2627
  57   1.0000      -0.372629       -10.1398
  58   1.0000      -0.369739       -10.0611
  59   1.0000      -0.366630        -9.9765
  60   1.0000      -0.364879        -9.9289
  61   1.0000      -0.352236        -9.5848
  62   1.0000      -0.349371        -9.5069
  63   1.0000      -0.344853        -9.3839
  64   1.0000      -0.340371        -9.2620
  65   1.0000      -0.338353        -9.2070
  66   1.0000      -0.334738        -9.1087
  67   1.0000      -0.331565        -9.0224
  68   1.0000      -0.320194        -8.7129
  69   1.0000      -0.316752        -8.6193
  70   1.0000      -0.308397        -8.3919
  71   1.0000      -0.293081        -7.9751
  72   1.0000      -0.291553        -7.9336
  73   1.0000      -0.280347        -7.6286
  74   1.0000      -0.230195        -6.2639
  75   1.0000      -0.218472        -5.9449
  76   1.0000      -0.155848        -4.2408
  77   0.0000       0.018877         0.5137
  78   0.0000       0.022136         0.6023
  79   0.0000       0.047963         1.3052
  80   0.0000       0.059058         1.6071
  81   0.0000       0.064245         1.7482

                 SPIN DOWN ORBITALS
  NO   OCC          E(Eh)            E(eV)
   0   1.0000     -10.189657      -277.2747
   1   1.0000     -10.178860      -276.9809
   2   1.0000     -10.178545      -276.9723
   3   1.0000     -10.178411      -276.9687
   4   1.0000     -10.177602      -276.9466
   5   1.0000     -10.176988      -276.9299
   6   1.0000     -10.175648      -276.8935
   7   1.0000     -10.175510      -276.8897
   8   1.0000     -10.174999      -276.8758
   9   1.0000     -10.173926      -276.8466
  10   1.0000     -10.173513      -276.8354
  11   1.0000     -10.173283      -276.8291
  12   1.0000     -10.172532      -276.8087
  13   1.0000     -10.169951      -276.7384
  14   1.0000     -10.169443      -276.7246
  15   1.0000     -10.168897      -276.7098
  16   1.0000     -10.167302      -276.6664
  17   1.0000     -10.167234      -276.6645
  18   1.0000     -10.165028      -276.6045
  19   1.0000     -10.157469      -276.3988
  20   1.0000      -0.839521       -22.8445
  21   1.0000      -0.806558       -21.9476
  22   1.0000      -0.791628       -21.5413
  23   1.0000      -0.773294       -21.0424
  24   1.0000      -0.756352       -20.5814
  25   1.0000      -0.744534       -20.2598
  26   1.0000      -0.708874       -19.2894
  27   1.0000      -0.702716       -19.1219
  28   1.0000      -0.672128       -18.2895
  29   1.0000      -0.667995       -18.1771
  30   1.0000      -0.664993       -18.0954
  31   1.0000      -0.662665       -18.0320
  32   1.0000      -0.625768       -17.0280
  33   1.0000      -0.610901       -16.6235
  34   1.0000      -0.576853       -15.6970
  35   1.0000      -0.563540       -15.3347
  36   1.0000      -0.540657       -14.7120
  37   1.0000      -0.507304       -13.8045
  38   1.0000      -0.500729       -13.6255
  39   1.0000      -0.476282       -12.9603
  40   1.0000      -0.471439       -12.8285
  41   1.0000      -0.463593       -12.6150
  42   1.0000      -0.457914       -12.4605
  43   1.0000      -0.443493       -12.0681
  44   1.0000      -0.437114       -11.8945
  45   1.0000      -0.434719       -11.8293
  46   1.0000      -0.426916       -11.6170
  47   1.0000      -0.422970       -11.5096
  48   1.0000      -0.412060       -11.2127
  49   1.0000      -0.407572       -11.0906
  50   1.0000      -0.403499       -10.9798
  51   1.0000      -0.396976       -10.8023
  52   1.0000      -0.393445       -10.7062
  53   1.0000      -0.388301       -10.5662
  54   1.0000      -0.382304       -10.4030
  55   1.0000      -0.381923       -10.3926
  56   1.0000      -0.376366       -10.2414
  57   1.0000      -0.371317       -10.1041
  58   1.0000      -0.368776       -10.0349
  59   1.0000      -0.365383        -9.9426
  60   1.0000      -0.364203        -9.9105
  61   1.0000      -0.350822        -9.5464
  62   1.0000      -0.348450        -9.4818
  63   1.0000      -0.343784        -9.3548
  64   1.0000      -0.339088        -9.2270
  65   1.0000      -0.337258        -9.1773
  66   1.0000      -0.332933        -9.0596
  67   1.0000      -0.329852        -8.9757
  68   1.0000      -0.318168        -8.6578
  69   1.0000      -0.314858        -8.5677
  70   1.0000      -0.307588        -8.3699
  71   1.0000      -0.291835        -7.9412
  72   1.0000      -0.290464        -7.9039
  73   1.0000      -0.280214        -7.6250
  74   1.0000      -0.228273        -6.2116
  75   1.0000      -0.216581        -5.8935
  76   0.0000      -0.021579        -0.5872
  77   0.0000       0.019182         0.5220
  78   0.0000       0.022816         0.6208
  79   0.0000       0.048508         1.3200
  80   0.0000       0.059360         1.6153

MULLIKEN ATOMIC CHARGES AND SPIN POPULATIONS
--------------------------------------------
   0 C :   -0.238695    0.003714
   1 C :   -0.035519   -0.000257
   2 C :   -0.256517    0.000106
   3 C :   -0.025971   -0.000084
   4 C :    0.093171    0.000125
   5 C :    0.108957    0.000362
   6 H :   -0.023083   -0.000042
   7 H :   -0.012290    0.000006
   8 H :   -0.005066    0.000225
   9 H :   -0.015069    0.000040
  10 C :    0.091303   -0.000306
  11 H :    0.010793    0.000050
  12 H :    0.015841    0.000187
  13 H :    0.000113    0.000115
  14 C :    0.072388    0.003228
  15 C :    0.079385    0.000423
  16 C :    0.079154   -0.086971
  17 H :   -0.021860   -0.000741
  18 C :    0.109313   -0.000901
  19 C :   -0.171197    0.012397
  20 H :   -0.016373    0.000267
  21 C :    0.100763    0.000875
  22 H :   -0.002845    0.000008
  23 H :   -0.002569    0.000004
  24 C :    0.117293    0.000044
  25 H :   -0.007143   -0.000011
  26 H :   -0.003617    0.000010
  27 H :   -0.003746   -0.000022
  28 H :    0.001599    0.000304
  29 H :   -0.021044   -0.000020
  30 H :   -0.019719    0.000093
  31 C :   -0.092070   -0.009065
  32 H :   -0.025779    0.001005
  33 C :    0.125964    0.041978
  34 H :    0.001120    0.009033
  35 H :   -0.018332   -0.001276
  36 C :    0.065034   -0.078036
  37 H :   -0.013875    0.013208
  38 H :   -0.012526    0.015748
  39 C :   -0.252593    0.985302
  40 H :    0.029003    0.046625
  41 H :   -0.004231    0.037007
  42 C :    0.098648   -0.000814
  43 H :    0.015536    0.000676
  44 H :   -0.001595    0.000252
  45 H :    0.005898   -0.000156
  46 C :    0.084566   -0.092196
  47 H :    0.018243    0.023232
  48 H :   -0.003729    0.007402
  49 H :    0.010218    0.068024
  50 H :   -0.019041    0.000450
  51 H :   -0.035296    0.000100
  52 H :    0.027089   -0.001726
Sum of atomic charges         :   -0.0000000

LOEWDIN ATOMIC CHARGES AND SPIN POPULATIONS
-------------------------------------------
   0 C :   -0.047422    0.003100
   1 C :   -0.034124    0.000943
   2 C :   -0.036259    0.000292
   3 C :   -0.017147   -0.000432
   4 C :   -0.023373    0.000104
   5 C :   -0.028409    0.000437
   6 H :    0.018329   -0.000016
   7 H :    0.017655    0.000009
   8 H :    0.023325    0.000372
   9 H :    0.022258    0.000003
  10 C :   -0.048684   -0.000053
  11 H :    0.023642    0.000031
  12 H :    0.029066    0.000171
  13 H :    0.025315    0.000089
  14 C :   -0.024212    0.001164
  15 C :   -0.023872    0.000472
  16 C :   -0.047000   -0.009912
  17 H :    0.016698   -0.000604
  18 C :   -0.016712   -0.000067
  19 C :   -0.041855    0.009206
  20 H :    0.021664    0.000202
  21 C :   -0.038732    0.000100
  22 H :    0.014710    0.000007
  23 H :    0.020966    0.000029
  24 C :   -0.034445   -0.000052
  25 H :    0.018159   -0.000007
  26 H :    0.017476    0.000014
  27 H :    0.016947   -0.000009
  28 H :    0.027059    0.000209
  29 H :    0.015921   -0.000005
  30 H :    0.020856    0.000052
  31 C :   -0.050072   -0.005234
  32 H :    0.016397    0.000406
  33 C :   -0.028677    0.046405
  34 H :    0.027360    0.005677
  35 H :    0.018769   -0.000206
  36 C :   -0.031032   -0.012140
  37 H :    0.017863    0.009451
  38 H :    0.020556    0.011964
  39 C :   -0.036973    0.805705
  40 H :    0.030897    0.037571
  41 H :    0.023301    0.030501
  42 C :   -0.049988   -0.000215
  43 H :    0.032588    0.000553
  44 H :    0.023654    0.000205
  45 H :    0.023583    0.000023
  46 C :   -0.062970   -0.015354
  47 H :    0.027747    0.019684
  48 H :    0.024331    0.005284
  49 H :    0.022790    0.053760
  50 H :    0.018153    0.000232
  51 H :    0.018903    0.000065
  52 H :    0.025022   -0.000188

  Mayer bond orders larger than 0.100000
B(  0-C ,  1-C ) :   1.8662 B(  0-C ,  5-C ) :   1.0444 B(  0-C , 10-C ) :   1.1075
B(  1-C ,  2-C ) :   0.9487 B(  1-C , 15-C ) :   1.0493 B(  2-C ,  3-C ) :   0.9856
B(  2-C , 21-C ) :   1.0745 B(  2-C , 24-C ) :   1.0407 B(  3-C ,  4-C ) :   1.0631
B(  3-C , 14-C ) :   1.0791 B(  3-C , 51-H ) :   0.8864 B(  4-C ,  5-C ) :   1.1033
B(  4-C ,  6-H ) :   0.9160 B(  4-C ,  7-H ) :   0.9310 B(  5-C ,  8-H ) :   0.9014
B(  5-C ,  9-H ) :   0.9125 B( 10-C , 11-H ) :   0.9412 B( 10-C , 12-H ) :   0.9439
B( 10-C , 13-H ) :   0.9416 B( 14-C , 16-C ) :   1.0995 B( 14-C , 17-H ) :   0.9073
B( 14-C , 50-H ) :   0.9173 B( 15-C , 18-C ) :   1.0809 B( 15-C , 28-H ) :   0.9100
B( 15-C , 29-H ) :   0.9166 B( 16-C , 39-C ) :   1.0365 B( 16-C , 40-H ) :   0.9061
B( 16-C , 41-H ) :   0.8954 B( 18-C , 19-C ) :   1.0508 B( 18-C , 20-H ) :   0.9124
B( 18-C , 30-H ) :   0.9219 B( 19-C , 31-C ) :   1.8860 B( 19-C , 42-C ) :   1.0854
B( 21-C , 22-H ) :   0.9430 B( 21-C , 23-H ) :   0.9416 B( 21-C , 52-H ) :   0.9418
B( 24-C , 25-H ) :   0.9533 B( 24-C , 26-H ) :   0.9579 B( 24-C , 27-H ) :   0.9550
B( 31-C , 32-H ) :   0.9298 B( 31-C , 33-C ) :   1.0581 B( 33-C , 34-H ) :   0.9084
B( 33-C , 35-H ) :   0.9271 B( 33-C , 36-C ) :   1.0573 B( 36-C , 37-H ) :   0.9293
B( 36-C , 38-H ) :   0.9156 B( 36-C , 39-C ) :   1.0872 B( 39-C , 46-C ) :   1.1254
B( 42-C , 43-H ) :   0.9389 B( 42-C , 44-H ) :   0.9444 B( 42-C , 45-H ) :   0.9487
B( 46-C , 47-H ) :   0.9402 B( 46-C , 48-H ) :   0.9463 B( 46-C , 49-H ) :   0.9290

Dispersion correction           -0.120593938
FINAL SINGLE POINT ENERGY      -780.920871274283
Dispersion correction             ... done (  0.0 sec)

DIPOLE MOMENT
-------------

Method             : SCF
Type of density    : Electron Density
Multiplicity       :   2
Irrep              :   0
Energy             :  -780.8002773358718969 Eh
Basis              : AO
                                X                 Y                 Z
Electronic contribution:     -1.055620246       0.905988842      -3.852887828
Nuclear contribution   :      1.012372151      -0.734830747       3.946983654
                        -----------------------------------------
Total Dipole Moment    :     -0.043248095       0.171158095       0.094095826
                        -----------------------------------------
Magnitude (a.u.)       :      0.200048784
Magnitude (Debye)      :      0.508483598

Rotational constants in cm-1:             0.013956             0.010688             0.008791
Rotational constants in MHz :           418.400510           320.427736           263.535665

                             ****ORCA TERMINATED NORMALLY****
TOTAL RUN TIME: 0 days 0 hours 3 minutes 10 seconds 608 msec
