                         Program Version 6.1.0  -  RELEASE   -
|  1> ! B3LYP def2-SVP d3 EnGrad
|  2> %pal nprocs 6 end
|  3> *xyz 0 1
|  4> N   0.60798235072729 1.01550846284788 -0.19282137972103
|  5> B   2.01593021225228 0.95465250110529 -0.09669094616742
|  6> N   -0.60798505668002 -1.01575846031022 0.19275951709097
|  7> B   -2.01588858086252 -0.95456980156889 0.09673818614787
|  8> H   0.03253460145462 -0.12573917420956 -0.56027884158969
|  9> H   2.50957033958022 -0.11974851377188 0.17306948926779
| 10> H   2.71736079888123 1.92372722769752 -0.27296939633627
| 11> H   0.16410789023713 1.90586499630861 -0.41821531358033
| 12> H   -0.03225798072177 0.12582439119974 0.56015049856304
| 13> H   -0.16442259342198 -1.90626802066424 0.41816818084459
| 14> H   -2.71760309199512 -1.92344372565291 0.27309394662864
| 15> H   -2.50932888945135 0.11995011701869 -0.17300394114819
| 16> *
| 17>
| 18>                          ****END OF INPUT****

CARTESIAN COORDINATES (ANGSTROEM)
---------------------------------
  N      0.607982    1.015508   -0.192821
  B      2.015930    0.954653   -0.096691
  N     -0.607985   -1.015758    0.192760
  B     -2.015889   -0.954570    0.096738
  H      0.032535   -0.125739   -0.560279
  H      2.509570   -0.119749    0.173069
  H      2.717361    1.923727   -0.272969
  H      0.164108    1.905865   -0.418215
  H     -0.032258    0.125824    0.560150
  H     -0.164423   -1.906268    0.418168
  H     -2.717603   -1.923444    0.273094
  H     -2.509329    0.119950   -0.173004

 Total Charge           Charge          ....    0
 Multiplicity           Mult            ....    1
 Number of Electrons    NEL             ....   32
 Basis Dimension        Dim             ....   96

ORBITAL ENERGIES
----------------

  NO   OCC          E(Eh)            E(eV)
   0   2.0000     -14.316940      -389.5837
   1   2.0000     -14.316825      -389.5806
   2   2.0000      -6.758896      -183.9189
   3   2.0000      -6.758798      -183.9162
   4   2.0000      -0.881366       -23.9832
   5   2.0000      -0.815665       -22.1954
   6   2.0000      -0.570953       -15.5364
   7   2.0000      -0.521355       -14.1868
   8   2.0000      -0.505623       -13.7587
   9   2.0000      -0.413980       -11.2650
  10   2.0000      -0.393433       -10.7059
  11   2.0000      -0.377295       -10.2667
  12   2.0000      -0.349112        -9.4998
  13   2.0000      -0.325804        -8.8656
  14   2.0000      -0.294956        -8.0262
  15   2.0000      -0.267050        -7.2668
  16   0.0000      -0.029845        -0.8121
  17   0.0000      -0.001780        -0.0484
  18   0.0000       0.056547         1.5387
  19   0.0000       0.081585         2.2200
  20   0.0000       0.113914         3.0998

MULLIKEN ATOMIC CHARGES
-----------------------
   0 N :   -0.236273
   1 B :   -0.023122
   2 N :   -0.236587
   3 B :   -0.023225
   4 H :    0.228893
   5 H :   -0.062387
   6 H :   -0.037475
   7 H :    0.130671
   8 H :    0.228894
   9 H :    0.130617
  10 H :   -0.037521
  11 H :   -0.062483
Sum of atomic charges:   -0.0000000

LOEWDIN ATOMIC CHARGES
----------------------
   0 N :   -0.040427
   1 B :   -0.080554
   2 N :   -0.040753
   3 B :   -0.080766
   4 H :    0.140525
   5 H :   -0.049610
   6 H :   -0.044545
   7 H :    0.074938
   8 H :    0.140528
   9 H :    0.074890
  10 H :   -0.044570
  11 H :   -0.049656

  Mayer bond orders larger than 0.100000
B(  0-N ,  1-B ) :   1.4208 B(  0-N ,  4-H ) :   0.4410 B(  0-N ,  7-H ) :   0.9334
B(  0-N ,  8-H ) :   0.4411 B(  1-B ,  5-H ) :   0.9605 B(  1-B ,  6-H ) :   0.9731
B(  2-N ,  3-B ) :   1.4211 B(  2-N ,  4-H ) :   0.4408 B(  2-N ,  8-H ) :   0.4407
B(  2-N ,  9-H ) :   0.9334 B(  3-B , 10-H ) :   0.9731 B(  3-B , 11-H ) :   0.9605

Dispersion correction           -0.011417638
FINAL SINGLE POINT ENERGY      -163.756934926033
Dispersion correction             ... done (  0.0 sec)

DIPOLE MOMENT
-------------

Method             : SCF
Type of density    : Electron Density
Multiplicity       :   1
Irrep              :   0
Energy             :  -163.7455172882462762 Eh
Basis              : AO
                                X                 Y                 Z
Electronic contribution:      0.001246249       0.000542214      -0.000176440
Nuclear contribution   :     -0.000106813       0.000346888       0.000013163
                        -----------------------------------------
Total Dipole Moment    :      0.001139437       0.000889103      -0.000163276
                        -----------------------------------------
Magnitude (a.u.)       :      0.001454468
Magnitude (Debye)      :      0.003696965

Rotational constants in cm-1:             0.841623             0.097796             0.088227
Rotational constants in MHz :         25231.218932          2931.847276          2644.964892

                             ****ORCA TERMINATED NORMALLY****
TOTAL RUN TIME: 0 days 0 hours 0 minutes 10 seconds 216 msec
