                         Program Version 6.1.0  -  RELEASE   -
|  1> ! B3LYP def2-SVP d3 EnGrad
|  2> %pal nprocs 6 end
|  3> *xyz 0 1
|  4> N   2.17709781648932 -0.79673440554197 -0.07243889469942
|  5> B   -0.48315570647759 1.86331642542134 0.29174592841146
|  6> B   -0.79325382523558 0.3241130354961 -0.56061583269315
|  7> N   -1.0994520849446 -0.86624558863618 0.15369756649481
|  8> H   1.30343206973428 -1.28022265349375 0.14856191945641
|  9> H   2.78459646642221 -0.89824484122795 0.74256542828304
| 10> H   2.6170471190213 -1.33114233924205 -0.82388014120064
| 11> H   -1.58566063552603 1.44748479938405 -0.21558359782779
| 12> H   -0.55724801312335 1.8433921031904 1.49697098334771
| 13> H   -0.19385508645209 2.86611970763544 -0.30753765410741
| 14> H   -0.74839289975835 0.28771085418694 -1.76303064142184
| 15> H   0.35260216041902 0.96711116303754 -0.10646411241238
| 16> H   -1.24461333371591 -0.88665315341176 1.15636807351355
| 17> H   -1.4340600468526 -1.69171810679816 -0.32510402514436
| 18> *
| 19>
| 20>                          ****END OF INPUT****

CARTESIAN COORDINATES (ANGSTROEM)
---------------------------------
  N      2.177098   -0.796734   -0.072439
  B     -0.483156    1.863316    0.291746
  B     -0.793254    0.324113   -0.560616
  N     -1.099452   -0.866246    0.153698
  H      1.303432   -1.280223    0.148562
  H      2.784596   -0.898245    0.742565
  H      2.617047   -1.331142   -0.823880
  H     -1.585661    1.447485   -0.215584
  H     -0.557248    1.843392    1.496971
  H     -0.193855    2.866120   -0.307538
  H     -0.748393    0.287711   -1.763031
  H      0.352602    0.967111   -0.106464
  H     -1.244613   -0.886653    1.156368
  H     -1.434060   -1.691718   -0.325104

 Total Charge           Charge          ....    0
 Multiplicity           Mult            ....    1
 Number of Electrons    NEL             ....   34
 Basis Dimension        Dim             ....  106

ORBITAL ENERGIES
----------------

  NO   OCC          E(Eh)            E(eV)
   0   2.0000     -14.316458      -389.5706
   1   2.0000     -14.298639      -389.0857
   2   2.0000      -6.780677      -184.5116
   3   2.0000      -6.730826      -183.1551
   4   2.0000      -0.849735       -23.1225
   5   2.0000      -0.829253       -22.5651
   6   2.0000      -0.619525       -16.8581
   7   2.0000      -0.506706       -13.7882
   8   2.0000      -0.475657       -12.9433
   9   2.0000      -0.451452       -12.2846
  10   2.0000      -0.449196       -12.2233
  11   2.0000      -0.396896       -10.8001
  12   2.0000      -0.387220       -10.5368
  13   2.0000      -0.338839        -9.2203
  14   2.0000      -0.314154        -8.5486
  15   2.0000      -0.269114        -7.3230
  16   2.0000      -0.251875        -6.8539
  17   0.0000       0.021525         0.5857
  18   0.0000       0.044100         1.2000
  19   0.0000       0.070412         1.9160
  20   0.0000       0.094748         2.5782
  21   0.0000       0.112006         3.0478

MULLIKEN ATOMIC CHARGES
-----------------------
   0 N :   -0.229603
   1 B :   -0.197213
   2 B :   -0.039842
   3 N :   -0.085383
   4 H :    0.066700
   5 H :    0.082252
   6 H :    0.083261
   7 H :    0.032882
   8 H :   -0.025574
   9 H :   -0.004824
  10 H :   -0.014482
  11 H :    0.098980
  12 H :    0.115031
  13 H :    0.117813
Sum of atomic charges:   -0.0000000

LOEWDIN ATOMIC CHARGES
----------------------
   0 N :   -0.142074
   1 B :   -0.241049
   2 B :   -0.128204
   3 N :   -0.003530
   4 H :    0.044922
   5 H :    0.055862
   6 H :    0.055670
   7 H :    0.111316
   8 H :   -0.015951
   9 H :   -0.003802
  10 H :   -0.018511
  11 H :    0.126083
  12 H :    0.078453
  13 H :    0.080815

  Mayer bond orders larger than 0.100000
B(  0-N ,  4-H ) :   0.9624 B(  0-N ,  5-H ) :   0.9897 B(  0-N ,  6-H ) :   0.9930
B(  1-B ,  2-B ) :   0.5005 B(  1-B ,  7-H ) :   0.5805 B(  1-B ,  8-H ) :   0.9906
B(  1-B ,  9-H ) :   0.9983 B(  1-B , 11-H ) :   0.5471 B(  2-B ,  3-N ) :   1.4402
B(  2-B ,  7-H ) :   0.3494 B(  2-B , 10-H ) :   0.9529 B(  2-B , 11-H ) :   0.3789
B(  3-N , 12-H ) :   0.9447 B(  3-N , 13-H ) :   0.9611

Dispersion correction           -0.013277768
FINAL SINGLE POINT ENERGY      -165.010836163842
Dispersion correction             ... done (  0.0 sec)

DIPOLE MOMENT
-------------

Method             : SCF
Type of density    : Electron Density
Multiplicity       :   1
Irrep              :   0
Energy             :  -164.9975583955400396 Eh
Basis              : AO
                                X                 Y                 Z
Electronic contribution:     -1.937865993      -0.786370464      -0.187881165
Nuclear contribution   :      1.841495735      -0.643494899       0.439388856
                        -----------------------------------------
Total Dipole Moment    :     -0.096370259      -1.429865363       0.251507692
                        -----------------------------------------
Magnitude (a.u.)       :      1.455011444
Magnitude (Debye)      :      3.698345178

Rotational constants in cm-1:             0.224058             0.114366             0.085500
Rotational constants in MHz :          6717.101996          3428.612953          2563.216529

                             ****ORCA TERMINATED NORMALLY****
TOTAL RUN TIME: 0 days 0 hours 0 minutes 11 seconds 965 msec
