                         Program Version 6.1.0  -  RELEASE   -
|  1> ! B3LYP def2-SVP d3 EnGrad
|  2> %pal nprocs 6 end
|  3> *xyz 0 1
|  4> C   1.14949819319778 0.86675996344392 -0.47939122761574
|  5> H   1.39225210792394 0.20746267403222 -1.35215620273866
|  6> H   0.95277371097311 -1.05856934156418 0.61062181933367
|  7> C   0.56844010989186 -0.02377737965069 0.52903688656848
|  8> C   -0.86954946111253 -0.09305263489865 -0.10727425863955
|  9> H   0.49168205323265 0.42637016551494 1.53276037340526
| 10> H   -1.57450277045344 -0.39162359277183 0.68192467718926
| 11> H   -1.19825449891588 0.88841910214518 -0.48737413414122
| 12> H   -0.91233944473745 -0.8219889562509 -0.92814793336149
| 13> *
| 14>
| 15>                          ****END OF INPUT****

CARTESIAN COORDINATES (ANGSTROEM)
---------------------------------
  C      1.149498    0.866760   -0.479391
  H      1.392252    0.207463   -1.352156
  H      0.952774   -1.058569    0.610622
  C      0.568440   -0.023777    0.529037
  C     -0.869549   -0.093053   -0.107274
  H      0.491682    0.426370    1.532760
  H     -1.574503   -0.391624    0.681925
  H     -1.198254    0.888419   -0.487374
  H     -0.912339   -0.821989   -0.928148

 Total Charge           Charge          ....    0
 Multiplicity           Mult            ....    1
 Number of Electrons    NEL             ....   24
 Basis Dimension        Dim             ....   72

ORBITAL ENERGIES
----------------

  NO   OCC          E(Eh)            E(eV)
   0   2.0000     -10.212163      -277.8871
   1   2.0000     -10.212042      -277.8838
   2   2.0000     -10.199353      -277.5385
   3   2.0000      -0.799818       -21.7641
   4   2.0000      -0.657425       -17.8894
   5   2.0000      -0.564204       -15.3528
   6   2.0000      -0.470797       -12.8110
   7   2.0000      -0.426377       -11.6023
   8   2.0000      -0.391295       -10.6477
   9   2.0000      -0.377708       -10.2780
  10   2.0000      -0.348862        -9.4930
  11   2.0000      -0.208682        -5.6785
  12   0.0000      -0.078016        -2.1229
  13   0.0000       0.057719         1.5706
  14   0.0000       0.090194         2.4543
  15   0.0000       0.100315         2.7297
  16   0.0000       0.134243         3.6529

MULLIKEN ATOMIC CHARGES
-----------------------
   0 C :   -0.123547
   1 H :    0.019120
   2 H :    0.022929
   3 C :   -0.003742
   4 C :   -0.095291
   5 H :    0.033872
   6 H :    0.049252
   7 H :    0.055026
   8 H :    0.042380
Sum of atomic charges:   -0.0000000

LOEWDIN ATOMIC CHARGES
----------------------
   0 C :   -0.057736
   1 H :   -0.003313
   2 H :    0.021217
   3 C :   -0.077154
   4 C :   -0.019790
   5 H :    0.023953
   6 H :    0.043772
   7 H :    0.038218
   8 H :    0.030834

  Mayer bond orders larger than 0.100000
B(  0-C ,  1-H ) :   0.9129 B(  0-C ,  3-C ) :   1.0722 B(  0-C ,  4-C ) :   0.1472
B(  2-H ,  3-C ) :   0.9169 B(  3-C ,  4-C ) :   0.9872 B(  3-C ,  5-H ) :   0.9478
B(  4-C ,  6-H ) :   0.9532 B(  4-C ,  7-H ) :   0.9568 B(  4-C ,  8-H ) :   0.9773

Dispersion correction           -0.008310999
FINAL SINGLE POINT ENERGY      -117.612541485082
Dispersion correction             ... done (  0.0 sec)

DIPOLE MOMENT
-------------

Method             : SCF
Type of density    : Electron Density
Multiplicity       :   1
Irrep              :   0
Energy             :  -117.6042304859522858 Eh
Basis              : AO
                                X                 Y                 Z
Electronic contribution:      1.591646142       0.918039595       0.020548512
Nuclear contribution   :     -2.044631674      -1.807344051       0.138885915
                        -----------------------------------------
Total Dipole Moment    :     -0.452985532      -0.889304456       0.159434426
                        -----------------------------------------
Magnitude (a.u.)       :      1.010681772
Magnitude (Debye)      :      2.568948907

Rotational constants in cm-1:             0.919366             0.387429             0.316225
Rotational constants in MHz :         27561.906961         11614.819376          9480.175816

                             ****ORCA TERMINATED NORMALLY****
TOTAL RUN TIME: 0 days 0 hours 0 minutes 7 seconds 671 msec
