                         Program Version 6.1.0  -  RELEASE   -
|  1> ! B3LYP def2-SVP d3 EnGrad
|  2> %pal nprocs 6 end
|  3> *xyz 0 1
|  4> C   0.14193375625136 -0.24534810092882 -0.27546414556907
|  5> C   0.90958122335759 0.73980352953237 -1.01150769805408
|  6> C   2.20666555069672 1.06055859639741 -0.65222558315627
|  7> C   2.85149397728454 0.37140170222626 0.38915883245672
|  8> C   2.18328568269223 -0.67804464065113 1.04418205415673
|  9> C   0.88807624362407 -1.015204681055 0.69526848992447
| 10> O   -0.85098613396894 -0.97914010375554 -1.02445429524966
| 11> C   -1.25086222271311 0.55672186771567 0.50350161068676
| 12> C   -1.95904768484765 -0.11243787952641 -0.675527865671
| 13> C   -3.16482417681958 -0.72341739814439 -0.19647406027589
| 14> H   0.41931555786191 1.24591845263829 -1.8472901811609
| 15> H   2.74432450246115 1.83695944070698 -1.20333576251757
| 16> H   3.87886677786836 0.62320101902564 0.66130970083637
| 17> H   2.70220687002099 -1.25369234989224 1.81543484991131
| 18> H   0.37116020667039 -1.8539519309951 1.16795874724611
| 19> H   -1.39352144427972 0.05436113752944 1.46734920257535
| 20> H   -2.1590066179373 0.62333133111468 -1.47784022435648
| 21> H   -4.15015715235465 -0.34100664180783 -0.46907308514901
| 22> H   -3.09804946801974 -1.56309496365586 0.50021021593494
| 23> H   -1.27045544784863 1.65308161352559 0.5888191974312
| 24> *
| 25>
| 26>                          ****END OF INPUT****

CARTESIAN COORDINATES (ANGSTROEM)
---------------------------------
  C      0.141934   -0.245348   -0.275464
  C      0.909581    0.739804   -1.011508
  C      2.206666    1.060559   -0.652226
  C      2.851494    0.371402    0.389159
  C      2.183286   -0.678045    1.044182
  C      0.888076   -1.015205    0.695268
  O     -0.850986   -0.979140   -1.024454
  C     -1.250862    0.556722    0.503502
  C     -1.959048   -0.112438   -0.675528
  C     -3.164824   -0.723417   -0.196474
  H      0.419316    1.245918   -1.847290
  H      2.744325    1.836959   -1.203336
  H      3.878867    0.623201    0.661310
  H      2.702207   -1.253692    1.815435
  H      0.371160   -1.853952    1.167959
  H     -1.393521    0.054361    1.467349
  H     -2.159007    0.623331   -1.477840
  H     -4.150157   -0.341007   -0.469073
  H     -3.098049   -1.563095    0.500210
  H     -1.270455    1.653082    0.588819

 Total Charge           Charge          ....    0
 Multiplicity           Mult            ....    1
 Number of Electrons    NEL             ....   72
 Basis Dimension        Dim             ....  190

ORBITAL ENERGIES
----------------

  NO   OCC          E(Eh)            E(eV)
   0   2.0000     -19.118610      -520.2438
   1   2.0000     -10.252590      -278.9872
   2   2.0000     -10.239222      -278.6234
   3   2.0000     -10.210185      -277.8333
   4   2.0000     -10.194105      -277.3957
   5   2.0000     -10.193400      -277.3765
   6   2.0000     -10.193087      -277.3680
   7   2.0000     -10.193078      -277.3677
   8   2.0000     -10.192917      -277.3634
   9   2.0000     -10.191913      -277.3361
  10   2.0000      -1.022784       -27.8314
  11   2.0000      -0.841519       -22.8989
  12   2.0000      -0.765326       -20.8256
  13   2.0000      -0.742022       -20.1914
  14   2.0000      -0.734869       -19.9968
  15   2.0000      -0.664784       -18.0897
  16   2.0000      -0.607895       -16.5417
  17   2.0000      -0.594450       -16.1758
  18   2.0000      -0.555066       -15.1041
  19   2.0000      -0.514662       -14.0047
  20   2.0000      -0.492283       -13.3957
  21   2.0000      -0.474863       -12.9217
  22   2.0000      -0.466716       -12.7000
  23   2.0000      -0.441461       -12.0128
  24   2.0000      -0.436683       -11.8828
  25   2.0000      -0.424076       -11.5397
  26   2.0000      -0.408636       -11.1195
  27   2.0000      -0.382291       -10.4027
  28   2.0000      -0.378805       -10.3078
  29   2.0000      -0.353279        -9.6132
  30   2.0000      -0.348434        -9.4814
  31   2.0000      -0.330268        -8.9871
  32   2.0000      -0.291423        -7.9300
  33   2.0000      -0.265890        -7.2352
  34   2.0000      -0.251133        -6.8337
  35   2.0000      -0.174134        -4.7384
  36   0.0000      -0.100032        -2.7220
  37   0.0000      -0.005739        -0.1562
  38   0.0000       0.049603         1.3498
  39   0.0000       0.056565         1.5392
  40   0.0000       0.071652         1.9498

MULLIKEN ATOMIC CHARGES
-----------------------
   0 C :    0.027453
   1 C :    0.044027
   2 C :    0.030027
   3 C :    0.009973
   4 C :    0.028751
   5 C :    0.033799
   6 O :   -0.354741
   7 C :    0.032742
   8 C :    0.211184
   9 C :   -0.072942
  10 H :   -0.018038
  11 H :   -0.016236
  12 H :   -0.012415
  13 H :   -0.015272
  14 H :   -0.019145
  15 H :    0.011164
  16 H :   -0.006033
  17 H :    0.031817
  18 H :    0.025852
  19 H :    0.028033
Sum of atomic charges:   -0.0000000

LOEWDIN ATOMIC CHARGES
----------------------
   0 C :    0.058072
   1 C :   -0.015550
   2 C :   -0.032296
   3 C :   -0.024238
   4 C :   -0.031012
   5 C :   -0.016091
   6 O :   -0.195619
   7 C :    0.023031
   8 C :    0.041727
   9 C :   -0.053320
  10 H :    0.027654
  11 H :    0.028574
  12 H :    0.026825
  13 H :    0.028976
  14 H :    0.026969
  15 H :    0.023186
  16 H :    0.016446
  17 H :    0.023409
  18 H :    0.021048
  19 H :    0.022208

  Mayer bond orders larger than 0.100000
B(  0-C ,  1-C ) :   1.1301 B(  0-C ,  5-C ) :   1.1764 B(  0-C ,  6-O ) :   0.9706
B(  0-C ,  7-C ) :   0.7191 B(  1-C ,  2-C ) :   1.4666 B(  1-C ,  9-C ) :   0.1499
B(  1-C , 10-H ) :   0.9746 B(  2-C ,  3-C ) :   1.3289 B(  2-C , 11-H ) :   0.9784
B(  3-C ,  4-C ) :   1.3260 B(  3-C ,  9-C ) :   0.1491 B(  3-C , 12-H ) :   0.9828
B(  4-C ,  5-C ) :   1.4637 B(  4-C , 13-H ) :   0.9792 B(  5-C ,  9-C ) :   0.1500
B(  5-C , 14-H ) :   0.9723 B(  6-O ,  8-C ) :   0.9577 B(  7-C ,  8-C ) :   0.9718
B(  7-C ,  9-C ) :   0.2413 B(  7-C , 15-H ) :   0.9262 B(  7-C , 19-H ) :   0.9445
B(  8-C ,  9-C ) :   1.2376 B(  8-C , 16-H ) :   0.9195 B(  9-C , 17-H ) :   0.9559
B(  9-C , 18-H ) :   0.9457

Dispersion correction           -0.035444191
FINAL SINGLE POINT ENERGY      -423.489423765230
Dispersion correction             ... done (  0.0 sec)

DIPOLE MOMENT
-------------

Method             : SCF
Type of density    : Electron Density
Multiplicity       :   1
Irrep              :   0
Energy             :  -423.4539795744325374 Eh
Basis              : AO
                                X                 Y                 Z
Electronic contribution:      3.169210578      -1.342953104      -1.810473066
Nuclear contribution   :     -3.116012679       2.010598246       2.327480275
                        -----------------------------------------
Total Dipole Moment    :      0.053197899       0.667645143       0.517007209
                        -----------------------------------------
Magnitude (a.u.)       :      0.846094857
Magnitude (Debye)      :      2.150602216

Rotational constants in cm-1:             0.118640             0.030567             0.027687
Rotational constants in MHz :          3556.740462           916.377354           830.036495

                             ****ORCA TERMINATED NORMALLY****
TOTAL RUN TIME: 0 days 0 hours 0 minutes 39 seconds 263 msec
