                         Program Version 6.1.0  -  RELEASE   -
|  1> ! B3LYP def2-SVP d3 EnGrad
|  2> %pal nprocs 6 end
|  3> *xyz 0 1
|  4> C   -1.83553548860409 0.04596989146944 -0.35441754661091
|  5> C   -0.58542661152507 0.61856304847264 0.05503275917095
|  6> N   0.37773066208769 -0.16435195450784 -0.37443952166171
|  7> C   1.70160634063573 -0.26336999360286 0.2116859229007
|  8> H   -0.37346675226363 1.54800639692495 0.6105552486181
|  9> H   -2.69411982148379 0.68735297473544 -0.59425834278327
| 10> H   -0.64610970231106 -0.76587432212642 -0.93315368673772
| 11> H   -2.11661641591592 -0.8179892425341 0.26691597289678
| 12> H   1.75853763457753 -1.11484025270207 0.91258546487444
| 13> H   2.45549574169761 -0.42523089285081 -0.57485565436939
| 14> H   1.957904413105 0.65176434672162 0.77434938370205
| 15> *
| 16>
| 17>                          ****END OF INPUT****

CARTESIAN COORDINATES (ANGSTROEM)
---------------------------------
  C     -1.835535    0.045970   -0.354418
  C     -0.585427    0.618563    0.055033
  N      0.377731   -0.164352   -0.374440
  C      1.701606   -0.263370    0.211686
  H     -0.373467    1.548006    0.610555
  H     -2.694120    0.687353   -0.594258
  H     -0.646110   -0.765874   -0.933154
  H     -2.116616   -0.817989    0.266916
  H      1.758538   -1.114840    0.912585
  H      2.455496   -0.425231   -0.574856
  H      1.957904    0.651764    0.774349

 Total Charge           Charge          ....    0
 Multiplicity           Mult            ....    1
 Number of Electrons    NEL             ....   32
 Basis Dimension        Dim             ....   91

ORBITAL ENERGIES
----------------

  NO   OCC          E(Eh)            E(eV)
   0   2.0000     -14.339194      -390.1893
   1   2.0000     -10.235849      -278.5316
   2   2.0000     -10.222827      -278.1773
   3   2.0000     -10.142960      -276.0040
   4   2.0000      -0.930161       -25.3110
   5   2.0000      -0.748073       -20.3561
   6   2.0000      -0.639855       -17.4113
   7   2.0000      -0.565557       -15.3896
   8   2.0000      -0.503285       -13.6951
   9   2.0000      -0.449443       -12.2300
  10   2.0000      -0.442925       -12.0526
  11   2.0000      -0.391625       -10.6567
  12   2.0000      -0.383761       -10.4427
  13   2.0000      -0.342577        -9.3220
  14   2.0000      -0.287870        -7.8333
  15   2.0000      -0.196259        -5.3405
  16   0.0000      -0.020203        -0.5497
  17   0.0000       0.065480         1.7818
  18   0.0000       0.079506         2.1635
  19   0.0000       0.099218         2.6999
  20   0.0000       0.121006         3.2927

MULLIKEN ATOMIC CHARGES
-----------------------
   0 C :   -0.193868
   1 C :    0.020250
   2 N :   -0.211048
   3 C :    0.111686
   4 H :    0.014575
   5 H :    0.006827
   6 H :    0.135889
   7 H :    0.038140
   8 H :    0.031315
   9 H :    0.029553
  10 H :    0.016679
Sum of atomic charges:   -0.0000000

LOEWDIN ATOMIC CHARGES
----------------------
   0 C :   -0.275354
   1 C :    0.080533
   2 N :   -0.071191
   3 C :    0.010055
   4 H :    0.010690
   5 H :    0.008336
   6 H :    0.126755
   7 H :    0.034713
   8 H :    0.027962
   9 H :    0.024974
  10 H :    0.022526

  Mayer bond orders larger than 0.100000
B(  0-C ,  1-C ) :   1.2374 B(  0-C ,  5-H ) :   0.9602 B(  0-C ,  6-H ) :   0.4246
B(  0-C ,  7-H ) :   0.9297 B(  1-C ,  2-N ) :   1.6314 B(  1-C ,  4-H ) :   0.9523
B(  2-N ,  3-C ) :   0.9660 B(  2-N ,  6-H ) :   0.5200 B(  3-C ,  8-H ) :   0.9644
B(  3-C ,  9-H ) :   0.9723 B(  3-C , 10-H ) :   0.9613

Dispersion correction           -0.011073842
FINAL SINGLE POINT ENERGY      -172.927345572678
Dispersion correction             ... done (  0.0 sec)

DIPOLE MOMENT
-------------

Method             : SCF
Type of density    : Electron Density
Multiplicity       :   1
Irrep              :   0
Energy             :  -172.9162717307252422 Eh
Basis              : AO
                                X                 Y                 Z
Electronic contribution:      0.065631899       0.639677984      -0.526948644
Nuclear contribution   :      0.668506656      -0.485265102       1.102903328
                        -----------------------------------------
Total Dipole Moment    :      0.734138555       0.154412881       0.575954684
                        -----------------------------------------
Magnitude (a.u.)       :      0.945794139
Magnitude (Debye)      :      2.404017651

Rotational constants in cm-1:             1.099211             0.148088             0.138767
Rotational constants in MHz :         32953.522130          4439.577120          4160.133287

                             ****ORCA TERMINATED NORMALLY****
TOTAL RUN TIME: 0 days 0 hours 0 minutes 10 seconds 5 msec
