                         Program Version 6.1.0  -  RELEASE   -
|  1> ! B3LYP def2-SVP d3 EnGrad
|  2> %pal nprocs 6 end
|  3> *xyz 0 1
|  4> C   -3.13926547737438 0.00872581984511 1.12743788433431
|  5> C   -1.68066177197968 0.12815948338683 0.75400870987008
|  6> H   -3.25523233498415 0.08832103633926 2.21480772787562
|  7> H   -3.53364021533526 -0.95691504778704 0.77357450087901
|  8> H   -3.71894890966738 0.79692771211286 0.6221562271427
|  9> O   -0.78520472673031 0.27317384779525 1.56303013608637
| 10> O   1.05145582292443 0.2450171030239 -1.42023253372405
| 11> H   -0.53003531019785 0.13354301901217 -0.78741781822752
| 12> O   -1.49529597354466 0.0525652295724 -0.55975531464528
| 13> C   2.19382135702481 -0.42199298796224 -0.8477646972623
| 14> C   2.12603725365969 1.05136241783987 -0.898781360659
| 15> C   1.83365744637936 1.93700047839292 0.28130833329809
| 16> H   2.70375383554859 1.53214805030786 -1.70205201849704
| 17> H   1.18408569906027 1.44327571812805 1.01549349974745
| 18> H   1.32764135226015 2.85601848336278 -0.05666624495958
| 19> H   2.77789164072484 2.23704057152264 0.76548517246927
| 20> C   1.97765982486005 -1.24643839768075 0.39199061094829
| 21> H   2.81580721199696 -0.90348574097915 -1.61682492230662
| 22> H   1.30167192976431 -0.75320867296619 1.10245046175416
| 23> H   2.94545750635117 -1.44555144499489 0.88137416451961
| 24> H   1.53647383925904 -2.22004867827166 0.12273348135644
| 25> *
| 26>
| 27>                          ****END OF INPUT****

CARTESIAN COORDINATES (ANGSTROEM)
---------------------------------
  C     -3.139265    0.008726    1.127438
  C     -1.680662    0.128159    0.754009
  H     -3.255232    0.088321    2.214808
  H     -3.533640   -0.956915    0.773575
  H     -3.718949    0.796928    0.622156
  O     -0.785205    0.273174    1.563030
  O      1.051456    0.245017   -1.420233
  H     -0.530035    0.133543   -0.787418
  O     -1.495296    0.052565   -0.559755
  C      2.193821   -0.421993   -0.847765
  C      2.126037    1.051362   -0.898781
  C      1.833657    1.937000    0.281308
  H      2.703754    1.532148   -1.702052
  H      1.184086    1.443276    1.015493
  H      1.327641    2.856018   -0.056666
  H      2.777892    2.237041    0.765485
  C      1.977660   -1.246438    0.391991
  H      2.815807   -0.903486   -1.616825
  H      1.301672   -0.753209    1.102450
  H      2.945458   -1.445551    0.881374
  H      1.536474   -2.220049    0.122733

 Total Charge           Charge          ....    0
 Multiplicity           Mult            ....    1
 Number of Electrons    NEL             ....   72
 Basis Dimension        Dim             ....  186

ORBITAL ENERGIES
----------------

  NO   OCC          E(Eh)            E(eV)
   0   2.0000     -19.155859      -521.2574
   1   2.0000     -19.147712      -521.0357
   2   2.0000     -19.104976      -519.8728
   3   2.0000     -10.301719      -280.3240
   4   2.0000     -10.247149      -278.8391
   5   2.0000     -10.246964      -278.8341
   6   2.0000     -10.186692      -277.1940
   7   2.0000     -10.183539      -277.1082
   8   2.0000     -10.182643      -277.0838
   9   2.0000      -1.075889       -29.2764
  10   2.0000      -1.067911       -29.0593
  11   2.0000      -0.981062       -26.6960
  12   2.0000      -0.745211       -20.2782
  13   2.0000      -0.734476       -19.9861
  14   2.0000      -0.733347       -19.9554
  15   2.0000      -0.637398       -17.3445
  16   2.0000      -0.585820       -15.9410
  17   2.0000      -0.567938       -15.4544
  18   2.0000      -0.519795       -14.1443
  19   2.0000      -0.478350       -13.0166
  20   2.0000      -0.459959       -12.5161
  21   2.0000      -0.455159       -12.3855
  22   2.0000      -0.450532       -12.2596
  23   2.0000      -0.438444       -11.9307
  24   2.0000      -0.423578       -11.5261
  25   2.0000      -0.400142       -10.8884
  26   2.0000      -0.395822       -10.7709
  27   2.0000      -0.395229       -10.7547
  28   2.0000      -0.376224       -10.2376
  29   2.0000      -0.370751       -10.0887
  30   2.0000      -0.363001        -9.8778
  31   2.0000      -0.352630        -9.5956
  32   2.0000      -0.306873        -8.3504
  33   2.0000      -0.300180        -8.1683
  34   2.0000      -0.284214        -7.7339
  35   2.0000      -0.259836        -7.0705
  36   0.0000       0.022116         0.6018
  37   0.0000       0.061264         1.6671
  38   0.0000       0.077981         2.1220
  39   0.0000       0.092651         2.5211
  40   0.0000       0.094109         2.5608

MULLIKEN ATOMIC CHARGES
-----------------------
   0 C :    0.030047
   1 C :    0.093827
   2 H :    0.030319
   3 H :    0.040160
   4 H :    0.040024
   5 O :   -0.252818
   6 O :   -0.374198
   7 H :    0.195210
   8 O :   -0.209858
   9 C :    0.038486
  10 C :    0.039355
  11 C :    0.070909
  12 H :    0.016688
  13 H :    0.039302
  14 H :    0.019504
  15 H :    0.018395
  16 C :    0.070283
  17 H :    0.016922
  18 H :    0.038585
  19 H :    0.018911
  20 H :    0.019950
Sum of atomic charges:    0.0000000

LOEWDIN ATOMIC CHARGES
----------------------
   0 C :   -0.075523
   1 C :    0.078532
   2 H :    0.036035
   3 H :    0.045000
   4 H :    0.044615
   5 O :   -0.209095
   6 O :   -0.174894
   7 H :    0.059011
   8 O :   -0.048393
   9 C :    0.066930
  10 C :    0.067450
  11 C :   -0.064617
  12 H :    0.018376
  13 H :    0.034399
  14 H :    0.032995
  15 H :    0.033976
  16 C :   -0.064749
  17 H :    0.018363
  18 H :    0.034400
  19 H :    0.034168
  20 H :    0.033021

  Mayer bond orders larger than 0.100000
B(  0-C ,  1-C ) :   1.0235 B(  0-C ,  2-H ) :   0.9634 B(  0-C ,  3-H ) :   0.9523
B(  0-C ,  4-H ) :   0.9523 B(  1-C ,  5-O ) :   1.9849 B(  1-C ,  8-O ) :   1.2871
B(  6-O ,  7-H ) :   0.1529 B(  6-O ,  9-C ) :   0.9019 B(  6-O , 10-C ) :   0.9034
B(  7-H ,  8-O ) :   0.8712 B(  9-C , 10-C ) :   1.0461 B(  9-C , 16-C ) :   1.1008
B(  9-C , 17-H ) :   0.9396 B( 10-C , 11-C ) :   1.0997 B( 10-C , 12-H ) :   0.9398
B( 11-C , 13-H ) :   0.9393 B( 11-C , 14-H ) :   0.9516 B( 11-C , 15-H ) :   0.9508
B( 16-C , 18-H ) :   0.9402 B( 16-C , 19-H ) :   0.9508 B( 16-C , 20-H ) :   0.9516

Dispersion correction           -0.026910624
FINAL SINGLE POINT ENERGY      -460.955100824164
Dispersion correction             ... done (  0.0 sec)

DIPOLE MOMENT
-------------

Method             : SCF
Type of density    : Electron Density
Multiplicity       :   1
Irrep              :   0
Energy             :  -460.9281901997113664 Eh
Basis              : AO
                                X                 Y                 Z
Electronic contribution:     -2.425784042      -0.135516196      -2.729655519
Nuclear contribution   :      2.994789073       0.123437027       2.575575312
                        -----------------------------------------
Total Dipole Moment    :      0.569005031      -0.012079169      -0.154080208
                        -----------------------------------------
Magnitude (a.u.)       :      0.589621355
Magnitude (Debye)      :      1.498698380

Rotational constants in cm-1:             0.087796             0.027058             0.026585
Rotational constants in MHz :          2632.053865           811.191284           797.011892

                             ****ORCA TERMINATED NORMALLY****
TOTAL RUN TIME: 0 days 0 hours 0 minutes 29 seconds 777 msec
