                         Program Version 6.1.0  -  RELEASE   -
|  1> ! B3LYP def2-SVP d3 EnGrad
|  2> %pal nprocs 6 end
|  3> *xyz 0 1
|  4> H   -3.10952399717135 0.88367968041446 -0.69284360043864
|  5> C   -2.03434485996583 0.70672522345712 -0.64133039542955
|  6> C   -1.56281319422745 -0.19769987119214 0.19288164812108
|  7> H   -1.32279735369271 1.25490115843607 -1.25810885864796
|  8> H   1.35319171970594 0.02786435443958 1.39326343205398
|  9> O   -1.18549560404722 -1.00699049246451 0.94507563219504
| 10> H   1.16665308884824 -0.58528172211379 -0.86931493605039
| 11> O   1.02525886720998 0.34665192091837 -0.65766255879885
| 12> C   1.71083390615361 0.63919218237068 0.54317216529976
| 13> H   1.51725446858132 1.69601685415213 0.78187570911967
| 14> H   2.80623095860544 0.50851171158201 0.44890176257584
| 15> *
| 16>
| 17>                          ****END OF INPUT****

CARTESIAN COORDINATES (ANGSTROEM)
---------------------------------
  H     -3.109524    0.883680   -0.692844
  C     -2.034345    0.706725   -0.641330
  C     -1.562813   -0.197700    0.192882
  H     -1.322797    1.254901   -1.258109
  H      1.353192    0.027864    1.393263
  O     -1.185496   -1.006990    0.945076
  H      1.166653   -0.585282   -0.869315
  O      1.025259    0.346652   -0.657663
  C      1.710834    0.639192    0.543172
  H      1.517254    1.696017    0.781876
  H      2.806231    0.508512    0.448902

 Total Charge           Charge          ....    0
 Multiplicity           Mult            ....    1
 Number of Electrons    NEL             ....   40
 Basis Dimension        Dim             ....  100

ORBITAL ENERGIES
----------------

  NO   OCC          E(Eh)            E(eV)
   0   2.0000     -19.185759      -522.0710
   1   2.0000     -19.137433      -520.7560
   2   2.0000     -10.299008      -280.2503
   3   2.0000     -10.230772      -278.3935
   4   2.0000     -10.179899      -277.0091
   5   2.0000      -1.090571       -29.6760
   6   2.0000      -1.010865       -27.5070
   7   2.0000      -0.751416       -20.4471
   8   2.0000      -0.674976       -18.3670
   9   2.0000      -0.518025       -14.0962
  10   2.0000      -0.511125       -13.9084
  11   2.0000      -0.475859       -12.9488
  12   2.0000      -0.469838       -12.7849
  13   2.0000      -0.441459       -12.0127
  14   2.0000      -0.434478       -11.8227
  15   2.0000      -0.427503       -11.6329
  16   2.0000      -0.389796       -10.6069
  17   2.0000      -0.337316        -9.1788
  18   2.0000      -0.279025        -7.5927
  19   2.0000      -0.230070        -6.2605
  20   0.0000      -0.021670        -0.5897
  21   0.0000       0.048752         1.3266
  22   0.0000       0.072261         1.9663
  23   0.0000       0.091985         2.5030
  24   0.0000       0.101779         2.7695

MULLIKEN ATOMIC CHARGES
-----------------------
   0 H :    0.071022
   1 C :   -0.263435
   2 C :    0.160622
   3 H :    0.086449
   4 H :    0.017040
   5 O :   -0.093374
   6 H :    0.174018
   7 O :   -0.328587
   8 C :    0.144572
   9 H :    0.023926
  10 H :    0.007747
Sum of atomic charges:    0.0000000

LOEWDIN ATOMIC CHARGES
----------------------
   0 H :    0.055909
   1 C :   -0.253582
   2 C :    0.152571
   3 H :    0.061363
   4 H :    0.005814
   5 O :   -0.055197
   6 H :    0.079741
   7 O :   -0.134926
   8 C :    0.061633
   9 H :    0.021513
  10 H :    0.005162

  Mayer bond orders larger than 0.100000
B(  0-H ,  1-C ) :   0.9306 B(  1-C ,  2-C ) :   1.8422 B(  1-C ,  3-H ) :   0.9139
B(  1-C ,  5-O ) :   0.1758 B(  2-C ,  5-O ) :   2.2401 B(  4-H ,  8-C ) :   0.9671
B(  6-H ,  7-O ) :   0.9755 B(  7-O ,  8-C ) :   1.0153 B(  8-C ,  9-H ) :   0.9813
B(  8-C , 10-H ) :   0.9734

Dispersion correction           -0.010290454
FINAL SINGLE POINT ENERGY      -267.989738955668
Dispersion correction             ... done (  0.1 sec)

DIPOLE MOMENT
-------------

Method             : SCF
Type of density    : Electron Density
Multiplicity       :   1
Irrep              :   0
Energy             :  -267.9794485015518148 Eh
Basis              : AO
                                X                 Y                 Z
Electronic contribution:     -3.652017994      -3.032979198       0.533991521
Nuclear contribution   :      4.000428405       3.003931905      -0.602891959
                        -----------------------------------------
Total Dipole Moment    :      0.348410411      -0.029047293      -0.068900439
                        -----------------------------------------
Magnitude (a.u.)       :      0.356343697
Magnitude (Debye)      :      0.905753696

Rotational constants in cm-1:             0.257424             0.090067             0.073149
Rotational constants in MHz :          7717.372871          2700.154318          2192.966662

                             ****ORCA TERMINATED NORMALLY****
TOTAL RUN TIME: 0 days 0 hours 0 minutes 10 seconds 750 msec
