                         Program Version 6.1.0  -  RELEASE   -
|  1> ! B3LYP def2-SVP d3 EnGrad
|  2> %pal nprocs 6 end
|  3> *xyz 0 1
|  4> C   -1.74204906127648 -0.11269132186323 -0.35212358437281
|  5> C   -0.43632084745008 0.32792258326181 0.22812937082504
|  6> N   0.70195014164313 -0.06192767322656 -0.2635069087068
|  7> C   1.99238037087265 0.04405250378471 0.26877001269338
|  8> H   -0.4347014255133 0.9850325760241 1.11408767976461
|  9> H   -2.30965827657078 -0.76171735690908 0.34256000519618
| 10> H   -2.39668073961358 0.74844898275672 -0.57854000862261
| 11> H   -1.57772709316953 -0.67478223980172 -1.28436303782426
| 12> H   2.78655924973941 -0.04964258886406 -0.47575303278805
| 13> H   2.17979668225472 0.65415587726712 1.16651196682688
| 14> H   1.23645099908385 -1.09885134242982 -0.16577246299157
| 15> *
| 16>
| 17>                          ****END OF INPUT****

CARTESIAN COORDINATES (ANGSTROEM)
---------------------------------
  C     -1.742049   -0.112691   -0.352124
  C     -0.436321    0.327923    0.228129
  N      0.701950   -0.061928   -0.263507
  C      1.992380    0.044053    0.268770
  H     -0.434701    0.985033    1.114088
  H     -2.309658   -0.761717    0.342560
  H     -2.396681    0.748449   -0.578540
  H     -1.577727   -0.674782   -1.284363
  H      2.786559   -0.049643   -0.475753
  H      2.179797    0.654156    1.166512
  H      1.236451   -1.098851   -0.165772

 Total Charge           Charge          ....    0
 Multiplicity           Mult            ....    1
 Number of Electrons    NEL             ....   32
 Basis Dimension        Dim             ....   91

ORBITAL ENERGIES
----------------

  NO   OCC          E(Eh)            E(eV)
   0   2.0000     -14.361373      -390.7928
   1   2.0000     -10.201700      -277.6024
   2   2.0000     -10.200498      -277.5697
   3   2.0000     -10.182395      -277.0771
   4   2.0000      -0.941978       -25.6325
   5   2.0000      -0.750403       -20.4195
   6   2.0000      -0.661126       -17.9902
   7   2.0000      -0.558848       -15.2070
   8   2.0000      -0.492648       -13.4056
   9   2.0000      -0.463618       -12.6157
  10   2.0000      -0.429954       -11.6997
  11   2.0000      -0.396422       -10.7872
  12   2.0000      -0.379563       -10.3284
  13   2.0000      -0.369669       -10.0592
  14   2.0000      -0.288441        -7.8489
  15   2.0000      -0.182511        -4.9664
  16   0.0000      -0.011809        -0.3214
  17   0.0000       0.057921         1.5761
  18   0.0000       0.081984         2.2309
  19   0.0000       0.094972         2.5843
  20   0.0000       0.117179         3.1886

MULLIKEN ATOMIC CHARGES
-----------------------
   0 C :    0.055950
   1 C :   -0.113569
   2 N :   -0.086978
   3 C :   -0.118495
   4 H :   -0.004816
   5 H :    0.020353
   6 H :    0.020153
   7 H :    0.011895
   8 H :    0.039610
   9 H :    0.023411
  10 H :    0.152485
Sum of atomic charges:    0.0000000

LOEWDIN ATOMIC CHARGES
----------------------
   0 C :   -0.066811
   1 C :   -0.070793
   2 N :    0.018794
   3 C :   -0.122388
   4 H :    0.001396
   5 H :    0.027379
   6 H :    0.030463
   7 H :    0.028691
   8 H :    0.015729
   9 H :    0.001337
  10 H :    0.136203

  Mayer bond orders larger than 0.100000
B(  0-C ,  1-C ) :   1.0763 B(  0-C ,  5-H ) :   0.9551 B(  0-C ,  6-H ) :   0.9544
B(  0-C ,  7-H ) :   0.9646 B(  1-C ,  2-N ) :   1.6147 B(  1-C ,  3-C ) :   0.2978
B(  1-C ,  4-H ) :   0.9557 B(  2-N ,  3-C ) :   1.0544 B(  2-N , 10-H ) :   0.5944
B(  3-C ,  8-H ) :   0.9658 B(  3-C ,  9-H ) :   0.9509 B(  3-C , 10-H ) :   0.4030

Dispersion correction           -0.010599892
FINAL SINGLE POINT ENERGY      -172.918045207798
Dispersion correction             ... done (  0.1 sec)

DIPOLE MOMENT
-------------

Method             : SCF
Type of density    : Electron Density
Multiplicity       :   1
Irrep              :   0
Energy             :  -172.9074453161383360 Eh
Basis              : AO
                                X                 Y                 Z
Electronic contribution:      1.145959163       0.296558032      -0.244835288
Nuclear contribution   :     -1.295021275      -0.421244881       0.320875948
                        -----------------------------------------
Total Dipole Moment    :     -0.149062112      -0.124686849       0.076040660
                        -----------------------------------------
Magnitude (a.u.)       :      0.208682787
Magnitude (Debye)      :      0.530429491

Rotational constants in cm-1:             1.300871             0.135297             0.127200
Rotational constants in MHz :         38999.118127          4056.095660          3813.372487

                             ****ORCA TERMINATED NORMALLY****
TOTAL RUN TIME: 0 days 0 hours 0 minutes 10 seconds 380 msec
