                         Program Version 6.1.0  -  RELEASE   -
|  1> ! B3LYP def2-SVP d3 EnGrad
|  2> %pal nprocs 6 end
|  3> *xyz 0 1
|  4> C   0.4523858005419 -0.2117323110659 -0.06492333655719
|  5> C   0.90620529976004 1.10923656270737 -0.20129532569938
|  6> C   2.27940645475289 1.3778363575269 -0.13710175803831
|  7> C   3.20305777112138 0.35231714324229 0.06264351364111
|  8> C   2.74235508671566 -0.96428406494665 0.20017739232984
|  9> C   1.38119392703426 -1.24771660830611 0.13769694536905
| 10> O   -0.85310344238766 -0.58235461426918 -0.11131942496923
| 11> C   -1.8441486273194 0.40508576470003 -0.34282613181643
| 12> C   -3.18053658084859 -0.26913941864821 -0.39586833645868
| 13> C   -4.24896430500004 0.12417869467783 0.29977188000996
| 14> H   0.20707683575802 1.93082314388427 -0.3567843606222
| 15> H   2.62297803072388 2.41003480266023 -0.24617490846517
| 16> H   4.27187144594711 0.57214274078061 0.11237080526202
| 17> H   3.45347546193431 -1.77936808758245 0.35873902904206
| 18> H   1.0030547760125 -2.2665558549654 0.24335978287689
| 19> H   -1.82666711059037 1.17553457093311 0.45069324133584
| 20> H   -3.24537855638229 -1.12586143046748 -1.07744316800932
| 21> H   -5.21355744512231 -0.38108409951074 0.20082253771596
| 22> H   -4.20128903239732 0.97021731011477 0.99411104007355
| 23> H   -1.63869279025401 0.9160493985347 -1.30564641702036
| 24> *
| 25>
| 26>                          ****END OF INPUT****

CARTESIAN COORDINATES (ANGSTROEM)
---------------------------------
  C      0.452386   -0.211732   -0.064923
  C      0.906205    1.109237   -0.201295
  C      2.279406    1.377836   -0.137102
  C      3.203058    0.352317    0.062644
  C      2.742355   -0.964284    0.200177
  C      1.381194   -1.247717    0.137697
  O     -0.853103   -0.582355   -0.111319
  C     -1.844149    0.405086   -0.342826
  C     -3.180537   -0.269139   -0.395868
  C     -4.248964    0.124179    0.299772
  H      0.207077    1.930823   -0.356784
  H      2.622978    2.410035   -0.246175
  H      4.271871    0.572143    0.112371
  H      3.453475   -1.779368    0.358739
  H      1.003055   -2.266556    0.243360
  H     -1.826667    1.175535    0.450693
  H     -3.245379   -1.125861   -1.077443
  H     -5.213557   -0.381084    0.200823
  H     -4.201289    0.970217    0.994111
  H     -1.638693    0.916049   -1.305646

 Total Charge           Charge          ....    0
 Multiplicity           Mult            ....    1
 Number of Electrons    NEL             ....   72
 Basis Dimension        Dim             ....  190

ORBITAL ENERGIES
----------------

  NO   OCC          E(Eh)            E(eV)
   0   2.0000     -19.159788      -521.3644
   1   2.0000     -10.247881      -278.8590
   2   2.0000     -10.244193      -278.7587
   3   2.0000     -10.196833      -277.4699
   4   2.0000     -10.192377      -277.3487
   5   2.0000     -10.187930      -277.2277
   6   2.0000     -10.186784      -277.1965
   7   2.0000     -10.184274      -277.1282
   8   2.0000     -10.180277      -277.0194
   9   2.0000     -10.179227      -276.9909
  10   2.0000      -1.056228       -28.7414
  11   2.0000      -0.840488       -22.8709
  12   2.0000      -0.790680       -21.5155
  13   2.0000      -0.737012       -20.0551
  14   2.0000      -0.730237       -19.8708
  15   2.0000      -0.679651       -18.4942
  16   2.0000      -0.604097       -16.4383
  17   2.0000      -0.585637       -15.9360
  18   2.0000      -0.559372       -15.2213
  19   2.0000      -0.536388       -14.5959
  20   2.0000      -0.491953       -13.3867
  21   2.0000      -0.481004       -13.0888
  22   2.0000      -0.470854       -12.8126
  23   2.0000      -0.446847       -12.1593
  24   2.0000      -0.435345       -11.8463
  25   2.0000      -0.418629       -11.3915
  26   2.0000      -0.415533       -11.3072
  27   2.0000      -0.377174       -10.2634
  28   2.0000      -0.373910       -10.1746
  29   2.0000      -0.360468        -9.8088
  30   2.0000      -0.351612        -9.5678
  31   2.0000      -0.324679        -8.8350
  32   2.0000      -0.321470        -8.7476
  33   2.0000      -0.274192        -7.4612
  34   2.0000      -0.252235        -6.8637
  35   2.0000      -0.220839        -6.0093
  36   0.0000      -0.006958        -0.1893
  37   0.0000       0.000706         0.0192
  38   0.0000       0.009509         0.2588
  39   0.0000       0.064122         1.7448
  40   0.0000       0.075498         2.0544

MULLIKEN ATOMIC CHARGES
-----------------------
   0 C :    0.215361
   1 C :   -0.080525
   2 C :    0.019346
   3 C :    0.020493
   4 C :    0.016146
   5 C :   -0.013224
   6 O :   -0.317038
   7 C :    0.250371
   8 C :   -0.066459
   9 C :   -0.025641
  10 H :   -0.026339
  11 H :   -0.018638
  12 H :   -0.022459
  13 H :   -0.016063
  14 H :   -0.022855
  15 H :    0.005996
  16 H :    0.015439
  17 H :    0.028607
  18 H :    0.019725
  19 H :    0.017758
Sum of atomic charges:   -0.0000000

LOEWDIN ATOMIC CHARGES
----------------------
   0 C :    0.053507
   1 C :   -0.080543
   2 C :   -0.016210
   3 C :   -0.050437
   4 C :   -0.016950
   5 C :   -0.047784
   6 O :   -0.101583
   7 C :    0.087213
   8 C :   -0.030780
   9 C :   -0.045121
  10 H :    0.024942
  11 H :    0.026519
  12 H :    0.024565
  13 H :    0.027503
  14 H :    0.030247
  15 H :    0.014841
  16 H :    0.030421
  17 H :    0.027633
  18 H :    0.022994
  19 H :    0.019025

  Mayer bond orders larger than 0.100000
B(  0-C ,  1-C ) :   1.3262 B(  0-C ,  5-C ) :   1.3561 B(  0-C ,  6-O ) :   1.1211
B(  1-C ,  2-C ) :   1.3501 B(  1-C , 10-H ) :   0.9878 B(  2-C ,  3-C ) :   1.4040
B(  2-C , 11-H ) :   0.9794 B(  3-C ,  4-C ) :   1.3556 B(  3-C , 12-H ) :   0.9871
B(  4-C ,  5-C ) :   1.4032 B(  4-C , 13-H ) :   0.9825 B(  5-C , 14-H ) :   0.9875
B(  6-O ,  7-C ) :   0.9353 B(  7-C ,  8-C ) :   1.0332 B(  7-C , 15-H ) :   0.9406
B(  7-C , 19-H ) :   0.9258 B(  8-C ,  9-C ) :   2.0195 B(  8-C , 16-H ) :   0.9606
B(  9-C , 17-H ) :   0.9521 B(  9-C , 18-H ) :   0.9523

Dispersion correction           -0.032714773
FINAL SINGLE POINT ENERGY      -423.628851551188
Dispersion correction             ... done (  0.0 sec)

DIPOLE MOMENT
-------------

Method             : SCF
Type of density    : Electron Density
Multiplicity       :   1
Irrep              :   0
Energy             :  -423.5961367782318234 Eh
Basis              : AO
                                X                 Y                 Z
Electronic contribution:      4.130026101      -1.805669252      -0.055454327
Nuclear contribution   :     -4.441483087       2.176676985      -0.048438262
                        -----------------------------------------
Total Dipole Moment    :     -0.311456985       0.371007733      -0.103892589
                        -----------------------------------------
Magnitude (a.u.)       :      0.495424930
Magnitude (Debye)      :      1.259270096

Rotational constants in cm-1:             0.152483             0.020767             0.018642
Rotational constants in MHz :          4571.327236           622.569041           558.875256

                             ****ORCA TERMINATED NORMALLY****
TOTAL RUN TIME: 0 days 0 hours 0 minutes 31 seconds 579 msec
