                         Program Version 6.1.0  -  RELEASE   -
|  1> ! B3LYP def2-SVP d3 EnGrad
|  2> %pal nprocs 6 end
|  3> *xyz 0 1
|  4> H   -0.26281030273976 1.54722130761675 -0.89739861859061
|  5> C   -0.52758304145361 1.01502254060587 0.03485228373817
|  6> C   0.54231465768767 -0.01453828893498 0.42507719556563
|  7> H   -0.83210198253402 1.74634919855661 0.80358484764816
|  8> H   0.76590363702669 -0.02618956351151 1.5083500843261
|  9> O   1.70697275040428 0.07375838855429 -0.34783431916519
| 10> H   2.35175506417925 -0.56324754148379 -0.01439500223457
| 11> O   -1.51043094534456 -0.01297503629886 -0.16727266093041
| 12> C   -0.53400504476799 -1.04846376150515 0.0163324252003
| 13> H   -0.84433779694394 -1.78873623763449 0.77557235030002
| 14> H   -0.27723599551404 -1.56814000596475 -0.92617758585761
| 15> *
| 16>
| 17>                          ****END OF INPUT****

CARTESIAN COORDINATES (ANGSTROEM)
---------------------------------
  H     -0.262810    1.547221   -0.897399
  C     -0.527583    1.015023    0.034852
  C      0.542315   -0.014538    0.425077
  H     -0.832102    1.746349    0.803585
  H      0.765904   -0.026190    1.508350
  O      1.706973    0.073758   -0.347834
  H      2.351755   -0.563248   -0.014395
  O     -1.510431   -0.012975   -0.167273
  C     -0.534005   -1.048464    0.016332
  H     -0.844338   -1.788736    0.775572
  H     -0.277236   -1.568140   -0.926178

 Total Charge           Charge          ....    0
 Multiplicity           Mult            ....    1
 Number of Electrons    NEL             ....   40
 Basis Dimension        Dim             ....  100

ORBITAL ENERGIES
----------------

  NO   OCC          E(Eh)            E(eV)
   0   2.0000     -19.139795      -520.8203
   1   2.0000     -19.119680      -520.2729
   2   2.0000     -10.240633      -278.6618
   3   2.0000     -10.227634      -278.3081
   4   2.0000     -10.227261      -278.2979
   5   2.0000      -1.039516       -28.2867
   6   2.0000      -1.009651       -27.4740
   7   2.0000      -0.720890       -19.6164
   8   2.0000      -0.683906       -18.6100
   9   2.0000      -0.558137       -15.1877
  10   2.0000      -0.539103       -14.6697
  11   2.0000      -0.498517       -13.5653
  12   2.0000      -0.461018       -12.5449
  13   2.0000      -0.434468       -11.8225
  14   2.0000      -0.400465       -10.8972
  15   2.0000      -0.380688       -10.3590
  16   2.0000      -0.346917        -9.4401
  17   2.0000      -0.311240        -8.4693
  18   2.0000      -0.271993        -7.4013
  19   2.0000      -0.247405        -6.7322
  20   0.0000       0.039786         1.0826
  21   0.0000       0.073141         1.9903
  22   0.0000       0.097244         2.6461
  23   0.0000       0.102296         2.7836
  24   0.0000       0.107959         2.9377

MULLIKEN ATOMIC CHARGES
-----------------------
   0 H :    0.008066
   1 C :    0.258683
   2 C :   -0.022865
   3 H :    0.008015
   4 H :   -0.002829
   5 O :   -0.272671
   6 H :    0.167859
   7 O :   -0.403132
   8 C :    0.263792
   9 H :    0.002139
  10 H :   -0.007057
Sum of atomic charges:    0.0000000

LOEWDIN ATOMIC CHARGES
----------------------
   0 H :    0.013594
   1 C :    0.094149
   2 C :    0.037009
   3 H :    0.010410
   4 H :    0.005964
   5 O :   -0.123879
   6 H :    0.079541
   7 O :   -0.210646
   8 C :    0.079240
   9 H :    0.006927
  10 H :    0.007692

  Mayer bond orders larger than 0.100000
B(  0-H ,  1-C ) :   0.9242 B(  1-C ,  2-C ) :   1.0785 B(  1-C ,  3-H ) :   0.9426
B(  1-C ,  7-O ) :   1.0247 B(  2-C ,  4-H ) :   0.9253 B(  2-C ,  5-O ) :   1.1074
B(  2-C ,  8-C ) :   1.0617 B(  5-O ,  6-H ) :   0.9765 B(  7-O ,  8-C ) :   1.0301
B(  8-C ,  9-H ) :   0.9394 B(  8-C , 10-H ) :   0.9181

Dispersion correction           -0.011652344
FINAL SINGLE POINT ENERGY      -267.982776168614
Dispersion correction             ... done (  0.0 sec)

DIPOLE MOMENT
-------------

Method             : SCF
Type of density    : Electron Density
Multiplicity       :   1
Irrep              :   0
Energy             :  -267.9711238244794345 Eh
Basis              : AO
                                X                 Y                 Z
Electronic contribution:     -0.245685167       0.203451850      -0.662105830
Nuclear contribution   :      1.015204383      -0.591493006       1.261012187
                        -----------------------------------------
Total Dipole Moment    :      0.769519216      -0.388041156       0.598906357
                        -----------------------------------------
Magnitude (a.u.)       :      1.049487774
Magnitude (Debye)      :      2.667585924

Rotational constants in cm-1:             0.359819             0.152029             0.121849
Rotational constants in MHz :         10787.116190          4557.705447          3652.939953

                             ****ORCA TERMINATED NORMALLY****
TOTAL RUN TIME: 0 days 0 hours 0 minutes 11 seconds 867 msec
