                         Program Version 6.1.0  -  RELEASE   -
|  1> ! B3LYP def2-SVP d3 EnGrad
|  2> %pal nprocs 6 end
|  3> *xyz 0 1
|  4> C   0.71885272760508 1.02183982399448 -0.0851787261123
|  5> C   0.52189292614472 0.24825189776914 1.18273966680344
|  6> C   0.99542878559077 0.60620257971682 2.38153459287079
|  7> C   0.79600440113384 -0.1534631224701 3.66229647585148
|  8> O   0.31995840874608 -1.47898886900408 3.50031607236375
|  9> Cl   -1.54905685029515 -2.99259837827198 1.48479619661192
| 10> S   -2.23794138517829 -1.84999619756799 3.23951934447691
| 11> O   -2.37825242666304 -0.44623168197773 2.87078225573807
| 12> Cl   -4.2449144870587 -2.67664373017174 3.25083686994929
| 13> H   -0.25380171275138 1.32409149414356 -0.51182375412392
| 14> H   1.21792585044655 0.40771036951127 -0.85553700246329
| 15> H   1.32162172581311 1.92927180652838 0.07486564654427
| 16> H   -0.07612209512849 -0.66580882121032 1.09791811923607
| 17> H   1.57438441244619 1.53363777703031 2.48049233502366
| 18> H   1.74070129643076 -0.1553634127726 4.24295484870055
| 19> H   0.04798964601903 0.36202289358456 4.29195440630575
| 20> H   0.77408077669894 -1.88728742883201 2.74795265222353
| 21> *
| 22>
| 23>                          ****END OF INPUT****

CARTESIAN COORDINATES (ANGSTROEM)
---------------------------------
  C      0.718853    1.021840   -0.085179
  C      0.521893    0.248252    1.182740
  C      0.995429    0.606203    2.381535
  C      0.796004   -0.153463    3.662296
  O      0.319958   -1.478989    3.500316
  Cl    -1.549057   -2.992598    1.484796
  S     -2.237941   -1.849996    3.239519
  O     -2.378252   -0.446232    2.870782
  Cl    -4.244914   -2.676644    3.250837
  H     -0.253802    1.324091   -0.511824
  H      1.217926    0.407710   -0.855537
  H      1.321622    1.929272    0.074866
  H     -0.076122   -0.665809    1.097918
  H      1.574384    1.533638    2.480492
  H      1.740701   -0.155363    4.242955
  H      0.047990    0.362023    4.291954
  H      0.774081   -1.887287    2.747953

 Total Charge           Charge          ....    0
 Multiplicity           Mult            ....    1
 Number of Electrons    NEL             ....   98
 Basis Dimension        Dim             ....  178

ORBITAL ENERGIES
----------------

  NO   OCC          E(Eh)            E(eV)
   0   2.0000    -101.507693     -2762.1647
   1   2.0000    -101.500755     -2761.9760
   2   2.0000     -89.045019     -2423.0381
   3   2.0000     -19.185503      -522.0641
   4   2.0000     -19.157989      -521.3154
   5   2.0000     -10.247071      -278.8370
   6   2.0000     -10.189940      -277.2824
   7   2.0000     -10.188061      -277.2312
   8   2.0000     -10.187016      -277.2028
   9   2.0000      -9.461322      -257.4557
  10   2.0000      -9.455417      -257.2950
  11   2.0000      -8.123258      -221.0451
  12   2.0000      -7.230013      -196.7387
  13   2.0000      -7.223987      -196.5747
  14   2.0000      -7.220673      -196.4845
  15   2.0000      -7.220623      -196.4831
  16   2.0000      -7.214790      -196.3244
  17   2.0000      -7.214598      -196.3192
  18   2.0000      -6.091282      -165.7522
  19   2.0000      -6.090745      -165.7376
  20   2.0000      -6.083509      -165.5407
  21   2.0000      -1.099622       -29.9222
  22   2.0000      -1.031093       -28.0575
  23   2.0000      -0.851214       -23.1627
  24   2.0000      -0.810649       -22.0589
  25   2.0000      -0.790614       -21.5137
  26   2.0000      -0.720877       -19.6161
  27   2.0000      -0.668159       -18.1815
  28   2.0000      -0.649562       -17.6755
  29   2.0000      -0.558630       -15.2011
  30   2.0000      -0.512656       -13.9501
  31   2.0000      -0.497449       -13.5363
  32   2.0000      -0.484970       -13.1967
  33   2.0000      -0.472068       -12.8456
  34   2.0000      -0.470919       -12.8144
  35   2.0000      -0.443569       -12.0701
  36   2.0000      -0.420406       -11.4398
  37   2.0000      -0.410067       -11.1585
  38   2.0000      -0.390637       -10.6298
  39   2.0000      -0.367625       -10.0036
  40   2.0000      -0.355059        -9.6617
  41   2.0000      -0.345373        -9.3981
  42   2.0000      -0.344101        -9.3635
  43   2.0000      -0.327215        -8.9040
  44   2.0000      -0.316444        -8.6109
  45   2.0000      -0.307881        -8.3779
  46   2.0000      -0.299867        -8.1598
  47   2.0000      -0.295884        -8.0514
  48   2.0000      -0.251953        -6.8560
  49   0.0000      -0.105762        -2.8779
  50   0.0000      -0.081220        -2.2101
  51   0.0000       0.011090         0.3018
  52   0.0000       0.030802         0.8382
  53   0.0000       0.062044         1.6883

MULLIKEN ATOMIC CHARGES
-----------------------
   0 C :    0.059625
   1 C :   -0.091303
   2 C :   -0.119894
   3 C :    0.269385
   4 O :   -0.331611
   5 Cl:   -0.197215
   6 S :    0.728633
   7 O :   -0.360382
   8 Cl:   -0.196681
   9 H :    0.030578
  10 H :    0.022514
  11 H :    0.008540
  12 H :   -0.022649
  13 H :   -0.006714
  14 H :    0.007311
  15 H :    0.023698
  16 H :    0.176165
Sum of atomic charges:    0.0000000

LOEWDIN ATOMIC CHARGES
----------------------
   0 C :   -0.051446
   1 C :   -0.038754
   2 C :   -0.073848
   3 C :    0.073805
   4 O :   -0.134853
   5 Cl:   -0.176686
   6 S :    0.758618
   7 O :   -0.406574
   8 Cl:   -0.183804
   9 H :    0.036684
  10 H :    0.032433
  11 H :    0.026204
  12 H :    0.002699
  13 H :    0.024419
  14 H :    0.015006
  15 H :    0.027061
  16 H :    0.069036

  Mayer bond orders larger than 0.100000
B(  0-C ,  1-C ) :   1.0843 B(  0-C ,  9-H ) :   0.9515 B(  0-C , 10-H ) :   0.9556
B(  0-C , 11-H ) :   0.9669 B(  1-C ,  2-C ) :   1.9331 B(  1-C , 12-H ) :   0.9407
B(  2-C ,  3-C ) :   1.0321 B(  2-C , 13-H ) :   0.9443 B(  3-C ,  4-O ) :   1.0153
B(  3-C , 14-H ) :   0.9411 B(  3-C , 15-H ) :   0.9283 B(  4-O , 16-H ) :   0.9525
B(  5-Cl,  6-S ) :   0.7927 B(  5-Cl,  7-O ) :   0.1830 B(  6-S ,  7-O ) :   1.7265
B(  6-S ,  8-Cl) :   0.8486 B(  7-O ,  8-Cl) :   0.1610

Dispersion correction           -0.031214544
FINAL SINGLE POINT ENERGY     -1625.274625997018
Dispersion correction             ... done (  0.0 sec)

DIPOLE MOMENT
-------------

Method             : SCF
Type of density    : Electron Density
Multiplicity       :   1
Irrep              :   0
Energy             : -1625.2434114528784903 Eh
Basis              : AO
                                X                 Y                 Z
Electronic contribution:    -19.458569782     -16.798036309       5.769057425
Nuclear contribution   :     20.510051450      17.057835179      -5.565230440
                        -----------------------------------------
Total Dipole Moment    :      1.051481668       0.259798871       0.203826986
                        -----------------------------------------
Magnitude (a.u.)       :      1.102113692
Magnitude (Debye)      :      2.801350379

Rotational constants in cm-1:             0.051089             0.015936             0.014871
Rotational constants in MHz :          1531.598373           477.751987           445.835728

                             ****ORCA TERMINATED NORMALLY****
TOTAL RUN TIME: 0 days 0 hours 0 minutes 26 seconds 756 msec
