                         Program Version 6.1.0  -  RELEASE   -
|  1> ! B3LYP def2-SVP d3 EnGrad
|  2> %pal nprocs 6 end
|  3> *xyz 0 1
|  4> C   2.18657353896299 0.68637185171002 -0.97089588739371
|  5> C   0.89899279759463 1.08336455579337 -0.2904550230944
|  6> C   -0.07742416316525 0.16777398886418 0.17655753033722
|  7> C   -0.31709918950271 -1.25675867888594 -0.18120833565068
|  8> O   -0.77298749169326 0.72751401829741 1.12153912264546
|  9> H   2.03265194806752 0.33765383525712 -2.01055354381842
| 10> H   2.70456284623589 -0.11983622053112 -0.42606802806681
| 11> H   2.87884764312974 1.54123312564596 -1.02061921441184
| 12> H   0.25907283116542 -1.90055359600057 0.50706176251161
| 13> H   -0.00488997582944 -1.48572341721343 -1.20934280001507
| 14> H   -1.38539037851946 -1.47443151998184 -0.01936188775376
| 15> H   0.22205999956092 1.54798622515276 0.97014082188673
| 16> H   0.40472656156839 1.98220633525492 -0.69540309557281
| 17> H   -2.56420372918668 0.00870320872091 1.16225739067167
| 18> O   -3.26263940645741 -0.66160056339472 1.03731805128395
| 19> H   -3.20285383193129 -1.18390314868904 1.84903313644087
| 20> *
| 21>
| 22>                          ****END OF INPUT****

CARTESIAN COORDINATES (ANGSTROEM)
---------------------------------
  C      2.186574    0.686372   -0.970896
  C      0.898993    1.083365   -0.290455
  C     -0.077424    0.167774    0.176558
  C     -0.317099   -1.256759   -0.181208
  O     -0.772987    0.727514    1.121539
  H      2.032652    0.337654   -2.010554
  H      2.704563   -0.119836   -0.426068
  H      2.878848    1.541233   -1.020619
  H      0.259073   -1.900554    0.507062
  H     -0.004890   -1.485723   -1.209343
  H     -1.385390   -1.474432   -0.019362
  H      0.222060    1.547986    0.970141
  H      0.404727    1.982206   -0.695403
  H     -2.564204    0.008703    1.162257
  O     -3.262639   -0.661601    1.037318
  H     -3.202854   -1.183903    1.849033

 Total Charge           Charge          ....    0
 Multiplicity           Mult            ....    1
 Number of Electrons    NEL             ....   50
 Basis Dimension        Dim             ....  134

ORBITAL ENERGIES
----------------

  NO   OCC          E(Eh)            E(eV)
   0   2.0000     -19.151518      -521.1393
   1   2.0000     -19.103923      -519.8442
   2   2.0000     -10.283736      -279.8347
   3   2.0000     -10.200154      -277.5603
   4   2.0000     -10.187499      -277.2159
   5   2.0000     -10.174316      -276.8572
   6   2.0000      -1.050839       -28.5948
   7   2.0000      -0.962017       -26.1778
   8   2.0000      -0.775623       -21.1058
   9   2.0000      -0.736037       -20.0286
  10   2.0000      -0.656014       -17.8511
  11   2.0000      -0.538198       -14.6451
  12   2.0000      -0.504554       -13.7296
  13   2.0000      -0.481417       -13.1000
  14   2.0000      -0.464957       -12.6521
  15   2.0000      -0.452161       -12.3039
  16   2.0000      -0.412396       -11.2219
  17   2.0000      -0.402562       -10.9543
  18   2.0000      -0.399521       -10.8715
  19   2.0000      -0.384994       -10.4762
  20   2.0000      -0.356963        -9.7135
  21   2.0000      -0.352966        -9.6047
  22   2.0000      -0.321605        -8.7513
  23   2.0000      -0.278061        -7.5664
  24   2.0000      -0.218936        -5.9576
  25   0.0000      -0.043986        -1.1969
  26   0.0000       0.049164         1.3378
  27   0.0000       0.068639         1.8678
  28   0.0000       0.080280         2.1845
  29   0.0000       0.102947         2.8013

MULLIKEN ATOMIC CHARGES
-----------------------
   0 C :    0.065267
   1 C :   -0.270588
   2 C :    0.051753
   3 C :    0.070313
   4 O :   -0.312490
   5 H :    0.014910
   6 H :    0.013374
   7 H :    0.018605
   8 H :    0.047506
   9 H :    0.028873
  10 H :    0.031123
  11 H :    0.186162
  12 H :    0.050029
  13 H :    0.149825
  14 O :   -0.290164
  15 H :    0.145501
Sum of atomic charges:   -0.0000000

LOEWDIN ATOMIC CHARGES
----------------------
   0 C :   -0.060810
   1 C :   -0.218441
   2 C :    0.123467
   3 C :   -0.068633
   4 O :   -0.167076
   5 H :    0.022147
   6 H :    0.024083
   7 H :    0.033394
   8 H :    0.055723
   9 H :    0.037226
  10 H :    0.043780
  11 H :    0.149626
  12 H :    0.054970
  13 H :    0.046515
  14 O :   -0.147821
  15 H :    0.071852

  Mayer bond orders larger than 0.100000
B(  0-C ,  1-C ) :   1.0574 B(  0-C ,  5-H ) :   0.9562 B(  0-C ,  6-H ) :   0.9737
B(  0-C ,  7-H ) :   0.9572 B(  1-C ,  2-C ) :   1.2789 B(  1-C , 11-H ) :   0.4188
B(  1-C , 12-H ) :   0.9034 B(  2-C ,  3-C ) :   1.1075 B(  2-C ,  4-O ) :   1.4460
B(  3-C ,  8-H ) :   0.9287 B(  3-C ,  9-H ) :   0.9476 B(  3-C , 10-H ) :   0.8979
B(  4-O , 11-H ) :   0.4948 B(  4-O , 13-H ) :   0.1038 B( 10-H , 14-O ) :   0.1441
B( 13-H , 14-O ) :   0.9537 B( 14-O , 15-H ) :   1.0041

Dispersion correction           -0.018160570
FINAL SINGLE POINT ENERGY      -308.401113872034
Dispersion correction             ... done (  0.0 sec)

DIPOLE MOMENT
-------------

Method             : SCF
Type of density    : Electron Density
Multiplicity       :   1
Irrep              :   0
Energy             :  -308.3829533023368299 Eh
Basis              : AO
                                X                 Y                 Z
Electronic contribution:     -3.535179235       1.261694339       2.717067411
Nuclear contribution   :      4.427429250      -1.584921025      -2.730729967
                        -----------------------------------------
Total Dipole Moment    :      0.892250015      -0.323226686      -0.013662555
                        -----------------------------------------
Magnitude (a.u.)       :      0.949090220
Magnitude (Debye)      :      2.412395623

Rotational constants in cm-1:             0.247015             0.048146             0.042219
Rotational constants in MHz :          7405.313492          1443.389731          1265.686327

                             ****ORCA TERMINATED NORMALLY****
TOTAL RUN TIME: 0 days 0 hours 0 minutes 17 seconds 6 msec
