                         Program Version 6.1.0  -  RELEASE   -
|  1> ! B3LYP def2-SVP d3 EnGrad
|  2> %pal nprocs 6 end
|  3> *xyz 0 1
|  4> C   0.95891002827747 -0.52163343780472 0.16639216038866
|  5> O   0.85847074635864 0.45406584679513 -0.69431233667655
|  6> N   -1.03284726203045 0.74852851634841 -0.06801001213685
|  7> H   -1.80451187032594 1.45365850502211 -0.04895219184147
|  8> H   1.615172985366 -0.35806763172321 1.04844632669517
|  9> H   0.95374949557369 -1.56030481294788 -0.22985028767595
| 10> H   -0.21047723918911 -0.32400920871295 0.64354517076454
| 11> H   -1.33846688403031 0.10776222302312 -0.81725882951756
| 12> *
| 13>
| 14>                          ****END OF INPUT****

CARTESIAN COORDINATES (ANGSTROEM)
---------------------------------
  C      0.958910   -0.521633    0.166392
  O      0.858471    0.454066   -0.694312
  N     -1.032847    0.748529   -0.068010
  H     -1.804512    1.453659   -0.048952
  H      1.615173   -0.358068    1.048446
  H      0.953749   -1.560305   -0.229850
  H     -0.210477   -0.324009    0.643545
  H     -1.338467    0.107762   -0.817259

 Total Charge           Charge          ....    0
 Multiplicity           Mult            ....    1
 Number of Electrons    NEL             ....   26
 Basis Dimension        Dim             ....   67

ORBITAL ENERGIES
----------------

  NO   OCC          E(Eh)            E(eV)
   0   2.0000     -19.154977      -521.2334
   1   2.0000     -14.356051      -390.6480
   2   2.0000     -10.222300      -278.1629
   3   2.0000      -1.001087       -27.2410
   4   2.0000      -0.826196       -22.4819
   5   2.0000      -0.619488       -16.8571
   6   2.0000      -0.503027       -13.6881
   7   2.0000      -0.458007       -12.4630
   8   2.0000      -0.429371       -11.6838
   9   2.0000      -0.417668       -11.3653
  10   2.0000      -0.304187        -8.2773
  11   2.0000      -0.264711        -7.2031
  12   2.0000      -0.253781        -6.9057
  13   0.0000      -0.113240        -3.0814
  14   0.0000       0.052645         1.4325
  15   0.0000       0.093393         2.5413
  16   0.0000       0.118996         3.2380
  17   0.0000       0.149988         4.0814

MULLIKEN ATOMIC CHARGES
-----------------------
   0 C :    0.087302
   1 O :   -0.238903
   2 N :   -0.168723
   3 H :    0.085666
   4 H :    0.020663
   5 H :    0.015807
   6 H :    0.090475
   7 H :    0.107713
Sum of atomic charges:   -0.0000000

LOEWDIN ATOMIC CHARGES
----------------------
   0 C :   -0.021679
   1 O :   -0.099617
   2 N :   -0.069367
   3 H :    0.043707
   4 H :    0.006346
   5 H :   -0.001444
   6 H :    0.087085
   7 H :    0.054969

  Mayer bond orders larger than 0.100000
B(  0-C ,  1-O ) :   1.4022 B(  0-C ,  4-H ) :   0.9303 B(  0-C ,  5-H ) :   0.9314
B(  0-C ,  6-H ) :   0.5657 B(  1-O ,  2-N ) :   0.6233 B(  2-N ,  3-H ) :   0.9416
B(  2-N ,  6-H ) :   0.4592 B(  2-N ,  7-H ) :   0.9745

Dispersion correction           -0.005968576
FINAL SINGLE POINT ENERGY      -170.684508455053
Dispersion correction             ... done (  0.0 sec)

DIPOLE MOMENT
-------------

Method             : SCF
Type of density    : Electron Density
Multiplicity       :   1
Irrep              :   0
Energy             :  -170.6785398792937656 Eh
Basis              : AO
                                X                 Y                 Z
Electronic contribution:      0.978275406       1.351430247      -1.332566058
Nuclear contribution   :     -1.729609692      -1.709030301       1.495714754
                        -----------------------------------------
Total Dipole Moment    :     -0.751334286      -0.357600054       0.163148697
                        -----------------------------------------
Magnitude (a.u.)       :      0.847937796
Magnitude (Debye)      :      2.155286593

Rotational constants in cm-1:             1.016801             0.301838             0.252741
Rotational constants in MHz :         30482.932058          9048.883777          7576.975596

                             ****ORCA TERMINATED NORMALLY****
TOTAL RUN TIME: 0 days 0 hours 0 minutes 7 seconds 395 msec
