                         Program Version 6.1.0  -  RELEASE   -
|  1> ! B3LYP def2-SVP d3 EnGrad
|  2> %pal nprocs 6 end
|  3> *xyz 0 1
|  4> C   -0.20709454017992 -0.57353719262621 -0.13073561200507
|  5> O   -2.1458714460786 -0.12631243274283 1.26897659643603
|  6> C   -1.45206629999481 0.18892378641519 0.37099051577907
|  7> F   -0.41089749686989 -0.95012320931267 -1.41001066612901
|  8> F   -0.03731197315181 -1.66116801839378 0.63037548269592
|  9> C   1.08833163394981 0.27965283411714 -0.06544098964451
| 10> F   -1.6519234029308 1.27587897160687 -0.3772574371465
| 11> F   1.07055312586199 1.22728438053054 -0.99739835800345
| 12> F   1.16325869450348 0.85703980812256 1.14002756927731
| 13> F   2.15554570489055 -0.48981292771682 -0.24645910125979
| 14> *
| 15>
| 16>                          ****END OF INPUT****

CARTESIAN COORDINATES (ANGSTROEM)
---------------------------------
  C     -0.207095   -0.573537   -0.130736
  O     -2.145871   -0.126312    1.268977
  C     -1.452066    0.188924    0.370991
  F     -0.410897   -0.950123   -1.410011
  F     -0.037312   -1.661168    0.630375
  C      1.088332    0.279653   -0.065441
  F     -1.651923    1.275879   -0.377257
  F      1.070553    1.227284   -0.997398
  F      1.163259    0.857040    1.140028
  F      2.155546   -0.489813   -0.246459

 Total Charge           Charge          ....    0
 Multiplicity           Mult            ....    1
 Number of Electrons    NEL             ....   80
 Basis Dimension        Dim             ....  140

ORBITAL ENERGIES
----------------

  NO   OCC          E(Eh)            E(eV)
   0   2.0000     -24.758179      -673.7043
   1   2.0000     -24.756229      -673.6512
   2   2.0000     -24.756189      -673.6502
   3   2.0000     -24.756143      -673.6489
   4   2.0000     -24.750446      -673.4939
   5   2.0000     -24.749986      -673.4814
   6   2.0000     -19.199394      -522.4421
   7   2.0000     -10.473153      -284.9890
   8   2.0000     -10.414259      -283.3864
   9   2.0000     -10.394878      -282.8590
  10   2.0000      -1.343679       -36.5634
  11   2.0000      -1.299016       -35.3480
  12   2.0000      -1.274574       -34.6829
  13   2.0000      -1.250182       -34.0192
  14   2.0000      -1.247906       -33.9572
  15   2.0000      -1.234081       -33.5811
  16   2.0000      -1.109744       -30.1977
  17   2.0000      -0.820762       -22.3341
  18   2.0000      -0.729110       -19.8401
  19   2.0000      -0.674290       -18.3484
  20   2.0000      -0.646707       -17.5978
  21   2.0000      -0.639046       -17.3893
  22   2.0000      -0.633162       -17.2292
  23   2.0000      -0.610756       -16.6195
  24   2.0000      -0.598177       -16.2772
  25   2.0000      -0.540085       -14.6965
  26   2.0000      -0.525730       -14.3058
  27   2.0000      -0.512662       -13.9503
  28   2.0000      -0.506598       -13.7852
  29   2.0000      -0.503257       -13.6943
  30   2.0000      -0.490181       -13.3385
  31   2.0000      -0.481799       -13.1104
  32   2.0000      -0.468049       -12.7363
  33   2.0000      -0.466963       -12.7067
  34   2.0000      -0.449813       -12.2400
  35   2.0000      -0.446599       -12.1526
  36   2.0000      -0.440550       -11.9880
  37   2.0000      -0.420751       -11.4492
  38   2.0000      -0.401405       -10.9228
  39   2.0000      -0.349391        -9.5074
  40   0.0000      -0.071717        -1.9515
  41   0.0000       0.056813         1.5459
  42   0.0000       0.088700         2.4137
  43   0.0000       0.116901         3.1810
  44   0.0000       0.174061         4.7364

MULLIKEN ATOMIC CHARGES
-----------------------
   0 C :    0.296278
   1 O :   -0.092632
   2 C :    0.233767
   3 F :   -0.177567
   4 F :   -0.159806
   5 C :    0.486222
   6 F :   -0.150868
   7 F :   -0.140370
   8 F :   -0.156883
   9 F :   -0.138142
Sum of atomic charges:   -0.0000000

LOEWDIN ATOMIC CHARGES
----------------------
   0 C :    0.065753
   1 O :   -0.047209
   2 C :    0.077792
   3 F :   -0.050764
   4 F :   -0.034919
   5 C :    0.123386
   6 F :   -0.030339
   7 F :   -0.031923
   8 F :   -0.044381
   9 F :   -0.027396

  Mayer bond orders larger than 0.100000
B(  0-C ,  2-C ) :   0.8500 B(  0-C ,  3-F ) :   1.0891 B(  0-C ,  4-F ) :   1.1269
B(  0-C ,  5-C ) :   0.8935 B(  1-O ,  2-C ) :   2.2499 B(  2-C ,  6-F ) :   1.1037
B(  5-C ,  7-F ) :   1.1631 B(  5-C ,  8-F ) :   1.1341 B(  5-C ,  9-F ) :   1.1777

Dispersion correction           -0.012755100
FINAL SINGLE POINT ENERGY      -787.695069911104
Dispersion correction             ... done (  0.0 sec)

DIPOLE MOMENT
-------------

Method             : SCF
Type of density    : Electron Density
Multiplicity       :   1
Irrep              :   0
Energy             :  -787.6823148111744786 Eh
Basis              : AO
                                X                 Y                 Z
Electronic contribution:      2.282688312       0.249240372      -1.354534815
Nuclear contribution   :     -2.075880029      -0.187135506       1.135133435
                        -----------------------------------------
Total Dipole Moment    :      0.206808282       0.062104866      -0.219401379
                        -----------------------------------------
Magnitude (a.u.)       :      0.307837043
Magnitude (Debye)      :      0.782459581

Rotational constants in cm-1:             0.062957             0.039789             0.036264
Rotational constants in MHz :          1887.400634          1192.845319          1087.167768

                             ****ORCA TERMINATED NORMALLY****
TOTAL RUN TIME: 0 days 0 hours 0 minutes 17 seconds 370 msec
