                         Program Version 6.1.0  -  RELEASE   -
|  1> ! B3LYP def2-SVP d3 EnGrad
|  2> %pal nprocs 6 end
|  3> *xyz 0 1
|  4> H   -1.84720474881617 0.70184807777353 1.07905575218446
|  5> C   -1.71152466791952 0.25472741280807 0.08465958513057
|  6> C   -0.37363994757231 0.22434713230597 -0.51973950636186
|  7> H   -2.59785460128381 0.2843548161547 -0.56301058516206
|  8> H   -0.2865794635305 0.19634708742885 -1.61606779005296
|  9> O   -0.95994311090948 -0.95155179011436 0.0475426304754
| 10> H   1.67460616050905 -1.02126556244719 0.2721567906393
| 11> O   1.95122007763866 -0.13584228458276 -0.00525926139533
| 12> C   0.85140588075041 0.71856030653989 0.20661164134977
| 13> H   1.13724501809609 1.71369417896876 -0.17367377120358
| 14> H   0.61046740303759 0.82841662516452 1.28401851439628
| 15> *
| 16>
| 17>                          ****END OF INPUT****

CARTESIAN COORDINATES (ANGSTROEM)
---------------------------------
  H     -1.847205    0.701848    1.079056
  C     -1.711525    0.254727    0.084660
  C     -0.373640    0.224347   -0.519740
  H     -2.597855    0.284355   -0.563011
  H     -0.286579    0.196347   -1.616068
  O     -0.959943   -0.951552    0.047543
  H      1.674606   -1.021266    0.272157
  O      1.951220   -0.135842   -0.005259
  C      0.851406    0.718560    0.206612
  H      1.137245    1.713694   -0.173674
  H      0.610467    0.828417    1.284019

 Total Charge           Charge          ....    0
 Multiplicity           Mult            ....    1
 Number of Electrons    NEL             ....   40
 Basis Dimension        Dim             ....  100

ORBITAL ENERGIES
----------------

  NO   OCC          E(Eh)            E(eV)
   0   2.0000     -19.147057      -521.0179
   1   2.0000     -19.127038      -520.4732
   2   2.0000     -10.245079      -278.7828
   3   2.0000     -10.240928      -278.6698
   4   2.0000     -10.235623      -278.5255
   5   2.0000      -1.073720       -29.2174
   6   2.0000      -1.006342       -27.3840
   7   2.0000      -0.721454       -19.6318
   8   2.0000      -0.654146       -17.8002
   9   2.0000      -0.599963       -16.3258
  10   2.0000      -0.534243       -14.5375
  11   2.0000      -0.492328       -13.3969
  12   2.0000      -0.468533       -12.7494
  13   2.0000      -0.443979       -12.0813
  14   2.0000      -0.404562       -11.0087
  15   2.0000      -0.386338       -10.5128
  16   2.0000      -0.341004        -9.2792
  17   2.0000      -0.316543        -8.6136
  18   2.0000      -0.286411        -7.7936
  19   2.0000      -0.264856        -7.2071
  20   0.0000       0.065445         1.7808
  21   0.0000       0.070223         1.9109
  22   0.0000       0.084920         2.3108
  23   0.0000       0.094020         2.5584
  24   0.0000       0.109592         2.9822

MULLIKEN ATOMIC CHARGES
-----------------------
   0 H :    0.022699
   1 C :    0.167418
   2 C :   -0.043122
   3 H :    0.028580
   4 H :    0.023779
   5 O :   -0.343966
   6 H :    0.168986
   7 O :   -0.322225
   8 C :    0.314051
   9 H :    0.005841
  10 H :   -0.022041
Sum of atomic charges:   -0.0000000

LOEWDIN ATOMIC CHARGES
----------------------
   0 H :    0.014585
   1 C :    0.072729
   2 C :    0.032328
   3 H :    0.018101
   4 H :    0.018207
   5 O :   -0.193763
   6 H :    0.079217
   7 O :   -0.137688
   8 C :    0.065408
   9 H :    0.024139
  10 H :    0.006738

  Mayer bond orders larger than 0.100000
B(  0-H ,  1-C ) :   0.9330 B(  1-C ,  2-C ) :   1.0722 B(  1-C ,  3-H ) :   0.9426
B(  1-C ,  5-O ) :   0.9939 B(  2-C ,  4-H ) :   0.9367 B(  2-C ,  5-O ) :   0.9274
B(  2-C ,  8-C ) :   1.0518 B(  6-H ,  7-O ) :   0.9787 B(  7-O ,  8-C ) :   1.0344
B(  8-C ,  9-H ) :   0.9347 B(  8-C , 10-H ) :   0.9207

Dispersion correction           -0.011234323
FINAL SINGLE POINT ENERGY      -267.981319719606
Dispersion correction             ... done (  0.0 sec)

DIPOLE MOMENT
-------------

Method             : SCF
Type of density    : Electron Density
Multiplicity       :   1
Irrep              :   0
Energy             :  -267.9700853963865939 Eh
Basis              : AO
                                X                 Y                 Z
Electronic contribution:      0.632477778      -2.050290675      -0.335919113
Nuclear contribution   :     -1.192398883       2.542133579       0.401830086
                        -----------------------------------------
Total Dipole Moment    :     -0.559921105       0.491842904       0.065910973
                        -----------------------------------------
Magnitude (a.u.)       :      0.748174674
Magnitude (Debye)      :      1.901708890

Rotational constants in cm-1:             0.462921             0.114906             0.102907
Rotational constants in MHz :         13878.027786          3444.787144          3085.087785

                             ****ORCA TERMINATED NORMALLY****
TOTAL RUN TIME: 0 days 0 hours 0 minutes 11 seconds 752 msec
