                         Program Version 6.1.0  -  RELEASE   -
|  1> ! B3LYP def2-SVP d3 EnGrad
|  2> %pal nprocs 6 end
|  3> *xyz 0 1
|  4> C   -0.42804478498648 -1.38508230517836 0.68483704989551
|  5> C   -1.10071485649969 -0.60426680553676 -0.22102693556366
|  6> C   -0.58779003438624 0.75706033882977 -0.48555160659263
|  7> C   -1.22857976845672 1.51039388267709 0.51984141726658
|  8> C   1.56076843807813 -0.80693125265878 -0.23175022522195
|  9> C   1.26499895021707 0.56108859871158 -0.49447385459873
| 10> H   -1.90177399787348 -0.99602141804911 -0.8539780677383
| 11> H   0.0717221491701 -0.91499106485333 1.53492950725288
| 12> H   -0.70053901993915 -2.43463321222519 0.83753497216545
| 13> H   2.12219157084918 -1.10374692399931 0.65581899862326
| 14> H   1.57651015915315 -1.5302162997931 -1.05029769851843
| 15> H   1.45085067573309 0.89917963640325 -1.52006877092591
| 16> H   1.63077722712194 1.28270446206193 0.24381090730115
| 17> H   -1.6935514381268 2.48299494816447 0.32487174909442
| 18> H   -1.2382782533714 1.15524998374773 1.55212854165613
| 19> H   -0.79854701668273 1.12721743169812 -1.49662598409578
| 20> *
| 21>
| 22>                          ****END OF INPUT****

CARTESIAN COORDINATES (ANGSTROEM)
---------------------------------
  C     -0.428045   -1.385082    0.684837
  C     -1.100715   -0.604267   -0.221027
  C     -0.587790    0.757060   -0.485552
  C     -1.228580    1.510394    0.519841
  C      1.560768   -0.806931   -0.231750
  C      1.264999    0.561089   -0.494474
  H     -1.901774   -0.996021   -0.853978
  H      0.071722   -0.914991    1.534930
  H     -0.700539   -2.434633    0.837535
  H      2.122192   -1.103747    0.655819
  H      1.576510   -1.530216   -1.050298
  H      1.450851    0.899180   -1.520069
  H      1.630777    1.282704    0.243811
  H     -1.693551    2.482995    0.324872
  H     -1.238278    1.155250    1.552129
  H     -0.798547    1.127217   -1.496626

 Total Charge           Charge          ....    0
 Multiplicity           Mult            ....    1
 Number of Electrons    NEL             ....   46
 Basis Dimension        Dim             ....  134

ORBITAL ENERGIES
----------------

  NO   OCC          E(Eh)            E(eV)
   0   2.0000     -10.194638      -277.4102
   1   2.0000     -10.193099      -277.3683
   2   2.0000     -10.188406      -277.2406
   3   2.0000     -10.184601      -277.1371
   4   2.0000     -10.183457      -277.1060
   5   2.0000     -10.174476      -276.8616
   6   2.0000      -0.812154       -22.0998
   7   2.0000      -0.726628       -19.7725
   8   2.0000      -0.706131       -19.2148
   9   2.0000      -0.602437       -16.3931
  10   2.0000      -0.564896       -15.3716
  11   2.0000      -0.522754       -14.2249
  12   2.0000      -0.488825       -13.3016
  13   2.0000      -0.449935       -12.2434
  14   2.0000      -0.418353       -11.3840
  15   2.0000      -0.411401       -11.1948
  16   2.0000      -0.396049       -10.7770
  17   2.0000      -0.379406       -10.3242
  18   2.0000      -0.351571        -9.5667
  19   2.0000      -0.343601        -9.3499
  20   2.0000      -0.322033        -8.7630
  21   2.0000      -0.242359        -6.5949
  22   2.0000      -0.183889        -5.0039
  23   0.0000      -0.053315        -1.4508
  24   0.0000       0.024599         0.6694
  25   0.0000       0.061915         1.6848
  26   0.0000       0.081963         2.2303
  27   0.0000       0.103961         2.8289

MULLIKEN ATOMIC CHARGES
-----------------------
   0 C :   -0.018599
   1 C :   -0.074247
   2 C :    0.012183
   3 C :   -0.088670
   4 C :   -0.078117
   5 C :    0.051700
   6 H :    0.016595
   7 H :    0.035509
   8 H :    0.021092
   9 H :    0.023958
  10 H :    0.028683
  11 H :    0.013146
  12 H :   -0.000319
  13 H :    0.026662
  14 H :    0.032248
  15 H :   -0.001824
Sum of atomic charges:   -0.0000000

LOEWDIN ATOMIC CHARGES
----------------------
   0 C :   -0.051481
   1 C :   -0.004281
   2 C :   -0.033115
   3 C :   -0.052220
   4 C :   -0.021519
   5 C :   -0.070013
   6 H :    0.027687
   7 H :    0.031295
   8 H :    0.022411
   9 H :    0.019841
  10 H :    0.019373
  11 H :    0.028445
  12 H :    0.020600
  13 H :    0.014661
  14 H :    0.016021
  15 H :    0.032292

  Mayer bond orders larger than 0.100000
B(  0-C ,  1-C ) :   1.6109 B(  0-C ,  4-C ) :   0.4117 B(  0-C ,  7-H ) :   0.9315
B(  0-C ,  8-H ) :   0.9559 B(  1-C ,  2-C ) :   1.0162 B(  1-C ,  3-C ) :   0.3302
B(  1-C ,  6-H ) :   0.9699 B(  2-C ,  3-C ) :   1.3658 B(  2-C ,  5-C ) :   0.6525
B(  2-C , 15-H ) :   0.9116 B(  3-C ,  4-C ) :   0.2522 B(  3-C , 13-H ) :   0.9617
B(  3-C , 14-H ) :   0.9640 B(  4-C ,  5-C ) :   1.4437 B(  4-C ,  9-H ) :   0.9597
B(  4-C , 10-H ) :   0.9522 B(  5-C , 11-H ) :   0.9321 B(  5-C , 12-H ) :   0.9432

Dispersion correction           -0.023994108
FINAL SINGLE POINT ENERGY      -234.169368576970
Dispersion correction             ... done (  0.1 sec)

DIPOLE MOMENT
-------------

Method             : SCF
Type of density    : Electron Density
Multiplicity       :   1
Irrep              :   0
Energy             :  -234.1453744689895871 Eh
Basis              : AO
                                X                 Y                 Z
Electronic contribution:     -1.152454603       0.009956800      -0.598687582
Nuclear contribution   :      1.139901848      -0.070810013       0.500689534
                        -----------------------------------------
Total Dipole Moment    :     -0.012552755      -0.060853213      -0.097998049
                        -----------------------------------------
Magnitude (a.u.)       :      0.116035782
Magnitude (Debye)      :      0.294939519

Rotational constants in cm-1:             0.160503             0.112970             0.079938
Rotational constants in MHz :          4811.767646          3386.768885          2396.484747

                             ****ORCA TERMINATED NORMALLY****
TOTAL RUN TIME: 0 days 0 hours 0 minutes 20 seconds 235 msec
