                         Program Version 6.1.0  -  RELEASE   -
|  1> ! B3LYP def2-SVP d3 EnGrad
|  2> %pal nprocs 6 end
|  3> *xyz 0 1
|  4> C   -1.47721150435957 0.27045393665048 0.0546490000156
|  5> C   -0.08957279254704 -0.00972693370309 -0.16205144236993
|  6> H   -1.80345157049582 1.31187397563887 -0.04515066551235
|  7> H   -2.20258985085276 -0.48516209883194 -0.26506433707605
|  8> C   0.87107729395162 1.12607667187074 -0.38014911090157
|  9> H   0.84226178757022 1.40004559806908 -1.45042135745163
| 10> H   1.90556395760489 0.85185452471436 -0.12764001390586
| 11> H   0.57697653212699 2.01644326832909 0.19447459848733
| 12> C   0.32753803702542 -1.35885719597707 -0.67213129472031
| 13> H   -0.31577518688043 -2.14727390981051 -0.25846274225965
| 14> H   1.37349166650624 -1.58674473128353 -0.42470811572669
| 15> H   0.21576473241589 -1.36496592286532 -1.77180924058649
| 16> O   0.15357532373563 -0.37139291736775 1.76244214770853
| 17> H   0.62518133883711 0.34016139618014 2.22768620815345
| 18> H   -1.0028297646384 0.00721433838646 1.31833636614563
| 19> *
| 20>
| 21>                          ****END OF INPUT****

CARTESIAN COORDINATES (ANGSTROEM)
---------------------------------
  C     -1.477212    0.270454    0.054649
  C     -0.089573   -0.009727   -0.162051
  H     -1.803452    1.311874   -0.045151
  H     -2.202590   -0.485162   -0.265064
  C      0.871077    1.126077   -0.380149
  H      0.842262    1.400046   -1.450421
  H      1.905564    0.851855   -0.127640
  H      0.576977    2.016443    0.194475
  C      0.327538   -1.358857   -0.672131
  H     -0.315775   -2.147274   -0.258463
  H      1.373492   -1.586745   -0.424708
  H      0.215765   -1.364966   -1.771809
  O      0.153575   -0.371393    1.762442
  H      0.625181    0.340161    2.227686
  H     -1.002830    0.007214    1.318336

 Total Charge           Charge          ....    0
 Multiplicity           Mult            ....    1
 Number of Electrons    NEL             ....   42
 Basis Dimension        Dim             ....  120

ORBITAL ENERGIES
----------------

  NO   OCC          E(Eh)            E(eV)
   0   2.0000     -19.088712      -519.4303
   1   2.0000     -10.254974      -279.0520
   2   2.0000     -10.196327      -277.4562
   3   2.0000     -10.187481      -277.2155
   4   2.0000     -10.146334      -276.0958
   5   2.0000      -0.926360       -25.2075
   6   2.0000      -0.804911       -21.9027
   7   2.0000      -0.697850       -18.9895
   8   2.0000      -0.679333       -18.4856
   9   2.0000      -0.526908       -14.3379
  10   2.0000      -0.483646       -13.1607
  11   2.0000      -0.452068       -12.3014
  12   2.0000      -0.445239       -12.1156
  13   2.0000      -0.424090       -11.5401
  14   2.0000      -0.398790       -10.8516
  15   2.0000      -0.374925       -10.2022
  16   2.0000      -0.368088       -10.0162
  17   2.0000      -0.351238        -9.5577
  18   2.0000      -0.327339        -8.9073
  19   2.0000      -0.285214        -7.7611
  20   2.0000      -0.205334        -5.5874
  21   0.0000      -0.012369        -0.3366
  22   0.0000       0.047074         1.2809
  23   0.0000       0.098112         2.6698
  24   0.0000       0.108523         2.9531
  25   0.0000       0.113628         3.0920

MULLIKEN ATOMIC CHARGES
-----------------------
   0 C :   -0.112014
   1 C :   -0.173116
   2 H :    0.004242
   3 H :    0.007489
   4 C :    0.089433
   5 H :    0.027165
   6 H :    0.021962
   7 H :    0.013559
   8 C :    0.121093
   9 H :    0.024751
  10 H :    0.017875
  11 H :    0.021678
  12 O :   -0.391818
  13 H :    0.138300
  14 H :    0.189401
Sum of atomic charges:    0.0000000

LOEWDIN ATOMIC CHARGES
----------------------
   0 C :   -0.190893
   1 C :    0.139380
   2 H :    0.014873
   3 H :    0.017565
   4 C :   -0.045276
   5 H :    0.040689
   6 H :    0.029780
   7 H :    0.030460
   8 C :   -0.038252
   9 H :    0.038240
  10 H :    0.030901
  11 H :    0.036303
  12 O :   -0.240870
  13 H :    0.045658
  14 H :    0.091441

  Mayer bond orders larger than 0.100000
B(  0-C ,  1-C ) :   1.3123 B(  0-C ,  2-H ) :   0.9504 B(  0-C ,  3-H ) :   0.9485
B(  0-C , 14-H ) :   0.4606 B(  1-C ,  4-C ) :   1.0877 B(  1-C ,  8-C ) :   1.0764
B(  1-C , 12-O ) :   0.5127 B(  4-C ,  5-H ) :   0.9375 B(  4-C ,  6-H ) :   0.9571
B(  4-C ,  7-H ) :   0.9489 B(  8-C ,  9-H ) :   0.9475 B(  8-C , 10-H ) :   0.9555
B(  8-C , 11-H ) :   0.9417 B( 12-O , 13-H ) :   0.9840 B( 12-O , 14-H ) :   0.4837

Dispersion correction           -0.018520311
FINAL SINGLE POINT ENERGY      -233.263297182809
Dispersion correction             ... done (  0.1 sec)

DIPOLE MOMENT
-------------

Method             : SCF
Type of density    : Electron Density
Multiplicity       :   1
Irrep              :   0
Energy             :  -233.2447768713350911 Eh
Basis              : AO
                                X                 Y                 Z
Electronic contribution:      0.045899033      -0.510366917       1.709853602
Nuclear contribution   :      0.425282169       0.983536656      -2.271202793
                        -----------------------------------------
Total Dipole Moment    :      0.471181202       0.473169740      -0.561349191
                        -----------------------------------------
Magnitude (a.u.)       :      0.872361302
Magnitude (Debye)      :      2.217366213

Rotational constants in cm-1:             0.153103             0.140147             0.133005
Rotational constants in MHz :          4589.911566          4201.487319          3987.391987

                             ****ORCA TERMINATED NORMALLY****
TOTAL RUN TIME: 0 days 0 hours 0 minutes 15 seconds 779 msec
