                         Program Version 6.1.0  -  RELEASE   -
|  1> ! B3LYP def2-SVP d3 EnGrad
|  2> %pal nprocs 6 end
|  3> *xyz 0 1
|  4> C   -1.17430471027269 -0.19799115846883 -2.6614801e-07
|  5> C   0.00280682113874 -1.18354838371672 -1.9441852e-07
|  6> O   1.14929224823193 -0.31331888103573 4.6511378e-07
|  7> N   0.70888773197186 1.01676803889787 5.8557496e-07
|  8> N   -0.51017081738584 1.12084340934417 -7.0878232e-07
|  9> H   -1.82090207394412 -0.26058444824075 0.8889041981354
| 10> H   -1.8209033014707 -0.26058516099764 -0.88890367726476
| 11> H   0.04031182024332 -1.8197617723105 0.8976945644863
| 12> H   0.04031228148747 -1.81976164347188 -0.89769496669681
| 13> *
| 14>
| 15>                          ****END OF INPUT****

CARTESIAN COORDINATES (ANGSTROEM)
---------------------------------
  C     -1.174305   -0.197991   -0.000000
  C      0.002807   -1.183548   -0.000000
  O      1.149292   -0.313319    0.000000
  N      0.708888    1.016768    0.000001
  N     -0.510171    1.120843   -0.000001
  H     -1.820902   -0.260584    0.888904
  H     -1.820903   -0.260585   -0.888904
  H      0.040312   -1.819762    0.897695
  H      0.040312   -1.819762   -0.897695

 Total Charge           Charge          ....    0
 Multiplicity           Mult            ....    1
 Number of Electrons    NEL             ....   38
 Basis Dimension        Dim             ....   90

ORBITAL ENERGIES
----------------

  NO   OCC          E(Eh)            E(eV)
   0   2.0000     -19.183017      -521.9964
   1   2.0000     -14.429425      -392.6446
   2   2.0000     -14.373802      -391.1310
   3   2.0000     -10.255904      -279.0773
   4   2.0000     -10.240800      -278.6663
   5   2.0000      -1.135659       -30.9029
   6   2.0000      -0.965394       -26.2697
   7   2.0000      -0.805834       -21.9279
   8   2.0000      -0.665066       -18.0974
   9   2.0000      -0.605990       -16.4898
  10   2.0000      -0.524133       -14.2624
  11   2.0000      -0.513605       -13.9759
  12   2.0000      -0.477273       -12.9872
  13   2.0000      -0.422254       -11.4901
  14   2.0000      -0.414145       -11.2695
  15   2.0000      -0.377591       -10.2748
  16   2.0000      -0.351571        -9.5667
  17   2.0000      -0.284484        -7.7412
  18   2.0000      -0.280748        -7.6395
  19   0.0000      -0.034113        -0.9283
  20   0.0000       0.047363         1.2888
  21   0.0000       0.079693         2.1686
  22   0.0000       0.097595         2.6557
  23   0.0000       0.104325         2.8388

MULLIKEN ATOMIC CHARGES
-----------------------
   0 C :    0.067053
   1 C :    0.186206
   2 O :   -0.317406
   3 N :    0.087179
   4 N :   -0.178533
   5 H :    0.045418
   6 H :    0.045418
   7 H :    0.032332
   8 H :    0.032332
Sum of atomic charges:    0.0000000

LOEWDIN ATOMIC CHARGES
----------------------
   0 C :   -0.010566
   1 C :    0.055889
   2 O :   -0.139552
   3 N :    0.055927
   4 N :   -0.084921
   5 H :    0.037659
   6 H :    0.037659
   7 H :    0.023953
   8 H :    0.023953

  Mayer bond orders larger than 0.100000
B(  0-C ,  1-C ) :   1.0921 B(  0-C ,  4-N ) :   0.9882 B(  0-C ,  5-H ) :   0.9415
B(  0-C ,  6-H ) :   0.9415 B(  1-C ,  2-O ) :   0.9420 B(  1-C ,  7-H ) :   0.9510
B(  1-C ,  8-H ) :   0.9510 B(  2-O ,  3-N ) :   0.9481 B(  2-O ,  4-N ) :   0.1367
B(  3-N ,  4-N ) :   1.7933

Dispersion correction           -0.010298753
FINAL SINGLE POINT ENERGY      -262.931241208913
Dispersion correction             ... done (  0.1 sec)

DIPOLE MOMENT
-------------

Method             : SCF
Type of density    : Electron Density
Multiplicity       :   1
Irrep              :   0
Energy             :  -262.9209424561994979 Eh
Basis              : AO
                                X                 Y                 Z
Electronic contribution:      2.580447817       3.006259759      -0.000000194
Nuclear contribution   :     -3.506977981      -4.113445864       0.000000102
                        -----------------------------------------
Total Dipole Moment    :     -0.926530164      -1.107186105      -0.000000092
                        -----------------------------------------
Magnitude (a.u.)       :      1.443717152
Magnitude (Debye)      :      3.669637370

Rotational constants in cm-1:             0.290262             0.277384             0.149958
Rotational constants in MHz :          8701.848963          8315.752247          4495.622605

                             ****ORCA TERMINATED NORMALLY****
TOTAL RUN TIME: 0 days 0 hours 0 minutes 9 seconds 254 msec
