                         Program Version 6.1.0  -  RELEASE   -
|  1> ! B3LYP def2-SVP d3 EnGrad
|  2> %pal nprocs 6 end
|  3> *xyz 0 1
|  4> N   1.07341917368428 -1.29007713899083 0.85620625312691
|  5> B   1.44010751067913 1.32786916349169 -0.63789316158606
|  6> B   -2.23303119710133 -0.13965797802173 -0.63314794352319
|  7> N   -1.38272556608174 0.37194781377233 0.3374826978841
|  8> H   0.68892240916228 -2.0385704746003 1.43600688708577
|  9> H   1.94592064454942 -0.99111186499322 1.29410829936468
| 10> H   1.32954899819499 -1.71646548184245 -0.03595439490734
| 11> H   1.36808791687176 1.9051859905364 0.4173181185533
| 12> H   2.33489727497983 0.5414332365382 -0.82702054058193
| 13> H   0.69258047891256 1.60873830208557 -1.53562412426006
| 14> H   -3.21581583486285 0.48109058163562 -0.96959619116464
| 15> H   -1.97212551200453 -1.21425916322944 -1.12878902445274
| 16> H   -0.5346921312949 -0.11690502368425 0.64515611953378
| 17> H   -1.53509416568891 1.27078203730239 0.78174700492742
| 18> *
| 19>
| 20>                          ****END OF INPUT****

CARTESIAN COORDINATES (ANGSTROEM)
---------------------------------
  N      1.073419   -1.290077    0.856206
  B      1.440108    1.327869   -0.637893
  B     -2.233031   -0.139658   -0.633148
  N     -1.382726    0.371948    0.337483
  H      0.688922   -2.038570    1.436007
  H      1.945921   -0.991112    1.294108
  H      1.329549   -1.716465   -0.035954
  H      1.368088    1.905186    0.417318
  H      2.334897    0.541433   -0.827021
  H      0.692580    1.608738   -1.535624
  H     -3.215816    0.481091   -0.969596
  H     -1.972126   -1.214259   -1.128789
  H     -0.534692   -0.116905    0.645156
  H     -1.535094    1.270782    0.781747

 Total Charge           Charge          ....    0
 Multiplicity           Mult            ....    1
 Number of Electrons    NEL             ....   34
 Basis Dimension        Dim             ....  106

ORBITAL ENERGIES
----------------

  NO   OCC          E(Eh)            E(eV)
   0   2.0000     -14.337230      -390.1359
   1   2.0000     -14.303730      -389.2243
   2   2.0000      -6.772149      -184.2796
   3   2.0000      -6.724910      -182.9941
   4   2.0000      -0.866063       -23.5668
   5   2.0000      -0.829824       -22.5807
   6   2.0000      -0.503424       -13.6989
   7   2.0000      -0.496058       -13.4984
   8   2.0000      -0.490839       -13.3564
   9   2.0000      -0.481564       -13.1040
  10   2.0000      -0.475927       -12.9506
  11   2.0000      -0.370597       -10.0845
  12   2.0000      -0.341617        -9.2959
  13   2.0000      -0.339780        -9.2459
  14   2.0000      -0.304853        -8.2955
  15   2.0000      -0.285933        -7.7806
  16   2.0000      -0.278012        -7.5651
  17   0.0000      -0.053921        -1.4673
  18   0.0000       0.027264         0.7419
  19   0.0000       0.039429         1.0729
  20   0.0000       0.091631         2.4934
  21   0.0000       0.110696         3.0122

MULLIKEN ATOMIC CHARGES
-----------------------
   0 N :   -0.216101
   1 B :    0.013408
   2 B :   -0.073841
   3 N :   -0.060403
   4 H :    0.105748
   5 H :    0.112608
   6 H :    0.116347
   7 H :   -0.037222
   8 H :   -0.055749
   9 H :   -0.002458
  10 H :   -0.058612
  11 H :   -0.073178
  12 H :    0.114939
  13 H :    0.114516
Sum of atomic charges:   -0.0000000

LOEWDIN ATOMIC CHARGES
----------------------
   0 N :   -0.079701
   1 B :    0.031611
   2 B :   -0.139589
   3 N :    0.064201
   4 H :    0.067756
   5 H :    0.069356
   6 H :    0.070809
   7 H :   -0.037364
   8 H :   -0.044779
   9 H :   -0.028779
  10 H :   -0.050490
  11 H :   -0.053571
  12 H :    0.052416
  13 H :    0.078123

  Mayer bond orders larger than 0.100000
B(  0-N ,  4-H ) :   0.9773 B(  0-N ,  5-H ) :   0.9810 B(  0-N ,  6-H ) :   0.9821
B(  0-N , 12-H ) :   0.1379 B(  1-B ,  7-H ) :   0.9887 B(  1-B ,  8-H ) :   0.9786
B(  1-B ,  9-H ) :   0.9936 B(  2-B ,  3-N ) :   1.6117 B(  2-B , 10-H ) :   0.9690
B(  2-B , 11-H ) :   0.9647 B(  3-N , 12-H ) :   0.8946 B(  3-N , 13-H ) :   0.9548

Dispersion correction           -0.012106692
FINAL SINGLE POINT ENERGY      -164.987682162682
Dispersion correction             ... done (  0.1 sec)

DIPOLE MOMENT
-------------

Method             : SCF
Type of density    : Electron Density
Multiplicity       :   1
Irrep              :   0
Energy             :  -164.9755754703997184 Eh
Basis              : AO
                                X                 Y                 Z
Electronic contribution:     -2.089598983       0.621318995       0.230829140
Nuclear contribution   :      3.188201240      -1.118711803       0.636446433
                        -----------------------------------------
Total Dipole Moment    :      1.098602257      -0.497392808       0.867275573
                        -----------------------------------------
Magnitude (a.u.)       :      1.485427024
Magnitude (Debye)      :      3.775655439

Rotational constants in cm-1:             0.187150             0.101755             0.074393
Rotational constants in MHz :          5610.613674          3050.532872          2230.248783

                             ****ORCA TERMINATED NORMALLY****
TOTAL RUN TIME: 0 days 0 hours 0 minutes 11 seconds 591 msec
