                         Program Version 6.1.0  -  RELEASE   -
|  1> ! B3LYP def2-SVP d3 EnGrad
|  2> %pal nprocs 6 end
|  3> *xyz 0 1
|  4> N   0.62555456895794 1.79124976445973 0.77136095626394
|  5> B   0.64409181394489 0.42828189471018 0.39219034296462
|  6> N   -0.74046945872006 -1.85115561098288 -0.82007415123199
|  7> B   -0.76607841814022 -0.42383531892171 -0.44115432780726
|  8> H   -0.04754650519619 -2.10836272413531 -1.51731798677186
|  9> H   1.62263460736748 -0.24200836181921 0.61171278144312
| 10> H   0.26091844472878 0.22855618574393 -0.9264850092329
| 11> H   -0.15576440346932 2.41378866877801 0.60618226851232
| 12> H   1.42812801433082 2.23504743309465 1.19552556550737
| 13> H   -0.66520583785888 -2.50965372084532 -0.04988105561132
| 14> H   -0.47766019684983 -0.25352588354436 0.8269216011958
| 15> H   -1.72860262909541 0.29161767346226 -0.64898098523184
| 16> *
| 17>
| 18>                          ****END OF INPUT****

CARTESIAN COORDINATES (ANGSTROEM)
---------------------------------
  N      0.625555    1.791250    0.771361
  B      0.644092    0.428282    0.392190
  N     -0.740469   -1.851156   -0.820074
  B     -0.766078   -0.423835   -0.441154
  H     -0.047547   -2.108363   -1.517318
  H      1.622635   -0.242008    0.611713
  H      0.260918    0.228556   -0.926485
  H     -0.155764    2.413789    0.606182
  H      1.428128    2.235047    1.195526
  H     -0.665206   -2.509654   -0.049881
  H     -0.477660   -0.253526    0.826922
  H     -1.728603    0.291618   -0.648981

 Total Charge           Charge          ....    0
 Multiplicity           Mult            ....    1
 Number of Electrons    NEL             ....   32
 Basis Dimension        Dim             ....   96

ORBITAL ENERGIES
----------------

  NO   OCC          E(Eh)            E(eV)
   0   2.0000     -14.312842      -389.4722
   1   2.0000     -14.275952      -388.4684
   2   2.0000      -6.779714      -184.4854
   3   2.0000      -6.759546      -183.9366
   4   2.0000      -0.846178       -23.0257
   5   2.0000      -0.814159       -22.1544
   6   2.0000      -0.614244       -16.7144
   7   2.0000      -0.505018       -13.7422
   8   2.0000      -0.476773       -12.9736
   9   2.0000      -0.464946       -12.6518
  10   2.0000      -0.420365       -11.4387
  11   2.0000      -0.387397       -10.5416
  12   2.0000      -0.374014       -10.1774
  13   2.0000      -0.326232        -8.8772
  14   2.0000      -0.259801        -7.0695
  15   2.0000      -0.221478        -6.0267
  16   0.0000       0.018705         0.5090
  17   0.0000       0.052055         1.4165
  18   0.0000       0.057624         1.5680
  19   0.0000       0.101406         2.7594
  20   0.0000       0.123866         3.3706

MULLIKEN ATOMIC CHARGES
-----------------------
   0 N :   -0.064709
   1 B :   -0.070218
   2 N :   -0.130798
   3 B :   -0.090459
   4 H :    0.091557
   5 H :   -0.019082
   6 H :   -0.003816
   7 H :    0.116176
   8 H :    0.120351
   9 H :    0.091426
  10 H :   -0.002658
  11 H :   -0.037770
Sum of atomic charges:   -0.0000000

LOEWDIN ATOMIC CHARGES
----------------------
   0 N :    0.002643
   1 B :   -0.148305
   2 N :   -0.093845
   3 B :   -0.190995
   4 H :    0.066857
   5 H :   -0.020804
   6 H :    0.095251
   7 H :    0.079500
   8 H :    0.082370
   9 H :    0.066850
  10 H :    0.096491
  11 H :   -0.036015

  Mayer bond orders larger than 0.100000
B(  0-N ,  1-B ) :   1.5158 B(  0-N ,  7-H ) :   0.9449 B(  0-N ,  8-H ) :   0.9585
B(  1-B ,  3-B ) :   0.3043 B(  1-B ,  5-H ) :   0.9619 B(  1-B ,  6-H ) :   0.4213
B(  1-B , 10-H ) :   0.4273 B(  2-N ,  3-B ) :   1.3475 B(  2-N ,  4-H ) :   0.9689
B(  2-N ,  9-H ) :   0.9690 B(  3-B ,  6-H ) :   0.5178 B(  3-B , 10-H ) :   0.5132
B(  3-B , 11-H ) :   0.9647

Dispersion correction           -0.012197165
FINAL SINGLE POINT ENERGY      -163.833131463830
Dispersion correction             ... done (  0.1 sec)

DIPOLE MOMENT
-------------

Method             : SCF
Type of density    : Electron Density
Multiplicity       :   1
Irrep              :   0
Energy             :  -163.8209342987402124 Eh
Basis              : AO
                                X                 Y                 Z
Electronic contribution:      0.064336225       0.369211270       0.147826668
Nuclear contribution   :      0.593729787       0.124841972       0.244230190
                        -----------------------------------------
Total Dipole Moment    :      0.658066012       0.494053243       0.392056858
                        -----------------------------------------
Magnitude (a.u.)       :      0.911508674
Magnitude (Debye)      :      2.316870924

Rotational constants in cm-1:             0.995156             0.101818             0.095835
Rotational constants in MHz :         29834.011838          3052.423340          2873.065584

                             ****ORCA TERMINATED NORMALLY****
TOTAL RUN TIME: 0 days 0 hours 0 minutes 10 seconds 465 msec
