                         Program Version 6.1.0  -  RELEASE   -
|  1> ! B3LYP def2-SVP d3 EnGrad
|  2> %pal nprocs 6 end
|  3> *xyz 0 1
|  4> C   1.47916322511671 -0.62435726162477 -1.05378428003161
|  5> C   1.43653850571449 -0.2333924776636 0.39159642352068
|  6> H   2.31939106323833 -0.11200420924389 -1.54230222398461
|  7> H   0.54301161747992 -0.28020895055843 -1.51972970825227
|  8> H   1.56298625182959 -1.71190032356171 -1.17553625145647
|  9> O   1.5936054592308 0.87108155082486 0.86057611455933
| 10> O   1.0474675250539 -0.90377302907664 2.54861681309479
| 11> H   1.25582949579328 0.06148711060367 2.46284588366737
| 12> O   1.17220480666809 -1.29873397222175 1.18108736729922
| 13> C   -1.78769581456109 0.85109215075599 -0.13605110397083
| 14> C   -1.74957597262072 -0.24302476718863 0.63995449516211
| 15> C   -2.20820097886378 -1.6298906883332 0.300022844255
| 16> H   -1.31058170600261 -0.13659221215517 1.63810567688337
| 17> H   -2.58673683808099 -1.72105613641643 -0.72849571112137
| 18> H   -3.01052355735645 -1.95717025189109 0.98456408659973
| 19> H   -1.37900465382754 -2.34673158414437 0.42937395632399
| 20> C   -2.32041257580254 0.96532531593416 -1.53509863822255
| 21> H   -1.37863781332952 1.77694836724751 0.28644762128128
| 22> H   -2.69069613526525 0.00955311895037 -1.93375172719239
| 23> H   -1.54426737552938 1.34343909596407 -2.22493090869889
| 24> H   -3.1503955288852 1.69264315379907 -1.58284772971587
| 25> *
| 26>
| 27>                          ****END OF INPUT****

CARTESIAN COORDINATES (ANGSTROEM)
---------------------------------
  C      1.479163   -0.624357   -1.053784
  C      1.436539   -0.233392    0.391596
  H      2.319391   -0.112004   -1.542302
  H      0.543012   -0.280209   -1.519730
  H      1.562986   -1.711900   -1.175536
  O      1.593605    0.871082    0.860576
  O      1.047468   -0.903773    2.548617
  H      1.255829    0.061487    2.462846
  O      1.172205   -1.298734    1.181087
  C     -1.787696    0.851092   -0.136051
  C     -1.749576   -0.243025    0.639954
  C     -2.208201   -1.629891    0.300023
  H     -1.310582   -0.136592    1.638106
  H     -2.586737   -1.721056   -0.728496
  H     -3.010524   -1.957170    0.984564
  H     -1.379005   -2.346732    0.429374
  C     -2.320413    0.965325   -1.535099
  H     -1.378638    1.776948    0.286448
  H     -2.690696    0.009553   -1.933752
  H     -1.544267    1.343439   -2.224931
  H     -3.150396    1.692643   -1.582848

 Total Charge           Charge          ....    0
 Multiplicity           Mult            ....    1
 Number of Electrons    NEL             ....   72
 Basis Dimension        Dim             ....  186

ORBITAL ENERGIES
----------------

  NO   OCC          E(Eh)            E(eV)
   0   2.0000     -19.235781      -523.4322
   1   2.0000     -19.197865      -522.4005
   2   2.0000     -19.145352      -520.9715
   3   2.0000     -10.332425      -281.1596
   4   2.0000     -10.214272      -277.9445
   5   2.0000     -10.184711      -277.1401
   6   2.0000     -10.179906      -277.0093
   7   2.0000     -10.179464      -276.9973
   8   2.0000     -10.178457      -276.9699
   9   2.0000      -1.169141       -31.8139
  10   2.0000      -1.046466       -28.4758
  11   2.0000      -0.927036       -25.2259
  12   2.0000      -0.785436       -21.3728
  13   2.0000      -0.753247       -20.4969
  14   2.0000      -0.712716       -19.3940
  15   2.0000      -0.644689       -17.5429
  16   2.0000      -0.624345       -16.9893
  17   2.0000      -0.521524       -14.1914
  18   2.0000      -0.517525       -14.0826
  19   2.0000      -0.500205       -13.6113
  20   2.0000      -0.498474       -13.5642
  21   2.0000      -0.472657       -12.8616
  22   2.0000      -0.433046       -11.7838
  23   2.0000      -0.427932       -11.6446
  24   2.0000      -0.416630       -11.3371
  25   2.0000      -0.413418       -11.2497
  26   2.0000      -0.411227       -11.1900
  27   2.0000      -0.398555       -10.8452
  28   2.0000      -0.393577       -10.7098
  29   2.0000      -0.382471       -10.4076
  30   2.0000      -0.367374        -9.9967
  31   2.0000      -0.359873        -9.7927
  32   2.0000      -0.329587        -8.9685
  33   2.0000      -0.309486        -8.4215
  34   2.0000      -0.283286        -7.7086
  35   2.0000      -0.241938        -6.5835
  36   0.0000      -0.009766        -0.2658
  37   0.0000       0.010134         0.2758
  38   0.0000       0.025022         0.6809
  39   0.0000       0.048982         1.3329
  40   0.0000       0.081163         2.2086

MULLIKEN ATOMIC CHARGES
-----------------------
   0 C :    0.043646
   1 C :    0.161266
   2 H :    0.052045
   3 H :    0.063353
   4 H :    0.043810
   5 O :   -0.259677
   6 O :   -0.127294
   7 H :    0.190559
   8 O :   -0.153252
   9 C :   -0.118528
  10 C :   -0.105455
  11 C :    0.068144
  12 H :   -0.008944
  13 H :   -0.000677
  14 H :    0.022104
  15 H :    0.021569
  16 C :    0.062810
  17 H :    0.000163
  18 H :    0.005275
  19 H :    0.016272
  20 H :    0.022810
Sum of atomic charges:    0.0000000

LOEWDIN ATOMIC CHARGES
----------------------
   0 C :   -0.063823
   1 C :    0.079607
   2 H :    0.051596
   3 H :    0.059626
   4 H :    0.044023
   5 O :   -0.177198
   6 O :   -0.037009
   7 H :    0.058096
   8 O :   -0.002380
   9 C :   -0.056833
  10 C :   -0.049681
  11 C :   -0.060117
  12 H :    0.018714
  13 H :    0.020971
  14 H :    0.034515
  15 H :    0.031519
  16 C :   -0.061330
  17 H :    0.024221
  18 H :    0.023364
  19 H :    0.027658
  20 H :    0.034460

  Mayer bond orders larger than 0.100000
B(  0-C ,  1-C ) :   1.0614 B(  0-C ,  2-H ) :   0.9474 B(  0-C ,  3-H ) :   0.9375
B(  0-C ,  4-H ) :   0.9488 B(  1-C ,  5-O ) :   1.9775 B(  1-C ,  8-O ) :   1.1245
B(  5-O ,  7-H ) :   0.1179 B(  6-O ,  7-H ) :   0.9081 B(  6-O ,  8-O ) :   0.9359
B(  9-C , 10-C ) :   1.9470 B(  9-C , 16-C ) :   1.0818 B(  9-C , 17-H ) :   0.9507
B( 10-C , 11-C ) :   1.0958 B( 10-C , 12-H ) :   0.9382 B( 11-C , 13-H ) :   0.9597
B( 11-C , 14-H ) :   0.9485 B( 11-C , 15-H ) :   0.9467 B( 16-C , 18-H ) :   0.9616
B( 16-C , 19-H ) :   0.9502 B( 16-C , 20-H ) :   0.9493

Dispersion correction           -0.028641584
FINAL SINGLE POINT ENERGY      -460.860729708158
Dispersion correction             ... done (  0.0 sec)

DIPOLE MOMENT
-------------

Method             : SCF
Type of density    : Electron Density
Multiplicity       :   1
Irrep              :   0
Energy             :  -460.8320881240202311 Eh
Basis              : AO
                                X                 Y                 Z
Electronic contribution:      9.558831001       0.059413745       8.066658688
Nuclear contribution   :     -9.557475335      -0.139847503      -8.961551649
                        -----------------------------------------
Total Dipole Moment    :      0.001355666      -0.080433758      -0.894892962
                        -----------------------------------------
Magnitude (a.u.)       :      0.898501441
Magnitude (Debye)      :      2.283809166

Rotational constants in cm-1:             0.065280             0.032001             0.027529
Rotational constants in MHz :          1957.052206           959.369112           825.312448

                             ****ORCA TERMINATED NORMALLY****
TOTAL RUN TIME: 0 days 0 hours 0 minutes 30 seconds 857 msec
