                         Program Version 6.1.0  -  RELEASE   -
|  1> ! B3LYP def2-SVP d3 EnGrad
|  2> %pal nprocs 6 end
|  3> *xyz 0 1
|  4> C   1.85513599748509 -0.13641957376851 0.35442709472385
|  5> O   2.84761406715236 -0.03405675785472 0.9396009996393
|  6> C   -1.29733102774057 0.52402949727596 -0.33941561699668
|  7> O   -0.32232393107552 -0.42421768309308 -0.7578415880684
|  8> H   0.82245377020505 -1.21356899442577 0.93528004994636
|  9> H   0.76045629829952 0.0003238290095 -0.56873906087435
| 10> H   -1.0013442602445 1.53724940211185 -0.65925671721108
| 11> H   -2.26379526727876 0.27375256676566 -0.80099394651899
| 12> H   0.01133055113212 -1.04947465945126 0.13762103212541
| 13> H   -1.41219619793478 0.52238237343039 0.75931775323459
| 14> *
| 15>
| 16>                          ****END OF INPUT****

CARTESIAN COORDINATES (ANGSTROEM)
---------------------------------
  C      1.855136   -0.136420    0.354427
  O      2.847614   -0.034057    0.939601
  C     -1.297331    0.524029   -0.339416
  O     -0.322324   -0.424218   -0.757842
  H      0.822454   -1.213569    0.935280
  H      0.760456    0.000324   -0.568739
  H     -1.001344    1.537249   -0.659257
  H     -2.263795    0.273753   -0.800994
  H      0.011331   -1.049475    0.137621
  H     -1.412196    0.522382    0.759318

 Total Charge           Charge          ....    0
 Multiplicity           Mult            ....    1
 Number of Electrons    NEL             ....   34
 Basis Dimension        Dim             ....   86

ORBITAL ENERGIES
----------------

  NO   OCC          E(Eh)            E(eV)
   0   2.0000     -19.192980      -522.2675
   1   2.0000     -19.175309      -521.7867
   2   2.0000     -10.285881      -279.8930
   3   2.0000     -10.257583      -279.1230
   4   2.0000      -1.098385       -29.8886
   5   2.0000      -1.047521       -28.5045
   6   2.0000      -0.709224       -19.2990
   7   2.0000      -0.585047       -15.9199
   8   2.0000      -0.523520       -14.2457
   9   2.0000      -0.514185       -13.9917
  10   2.0000      -0.464073       -12.6281
  11   2.0000      -0.446247       -12.1430
  12   2.0000      -0.434534       -11.8243
  13   2.0000      -0.423682       -11.5290
  14   2.0000      -0.385744       -10.4966
  15   2.0000      -0.328885        -8.9494
  16   2.0000      -0.222133        -6.0445
  17   0.0000      -0.032855        -0.8940
  18   0.0000       0.003250         0.0884
  19   0.0000       0.067277         1.8307
  20   0.0000       0.102828         2.7981
  21   0.0000       0.112607         3.0642

MULLIKEN ATOMIC CHARGES
-----------------------
   0 C :   -0.065833
   1 O :   -0.063799
   2 C :    0.146057
   3 O :   -0.293354
   4 H :   -0.220036
   5 H :    0.235946
   6 H :    0.031498
   7 H :    0.042587
   8 H :    0.161506
   9 H :    0.025428
Sum of atomic charges:    0.0000000

LOEWDIN ATOMIC CHARGES
----------------------
   0 C :   -0.019582
   1 O :   -0.010881
   2 C :    0.076948
   3 O :   -0.043124
   4 H :   -0.146408
   5 H :    0.027089
   6 H :    0.019989
   7 H :    0.026219
   8 H :    0.051944
   9 H :    0.017806

  Mayer bond orders larger than 0.100000
B(  0-C ,  1-O ) :   2.3384 B(  0-C ,  4-H ) :   0.4224 B(  0-C ,  5-H ) :   0.4257
B(  2-C ,  3-O ) :   0.9623 B(  2-C ,  6-H ) :   0.9767 B(  2-C ,  7-H ) :   0.9813
B(  2-C ,  9-H ) :   0.9666 B(  3-O ,  5-H ) :   0.5827 B(  3-O ,  8-H ) :   0.6096
B(  4-H ,  8-H ) :   0.3745

Dispersion correction           -0.009244349
FINAL SINGLE POINT ENERGY      -229.836471385721
Dispersion correction             ... done (  0.1 sec)

DIPOLE MOMENT
-------------

Method             : SCF
Type of density    : Electron Density
Multiplicity       :   1
Irrep              :   0
Energy             :  -229.8272270365405348 Eh
Basis              : AO
                                X                 Y                 Z
Electronic contribution:      5.946185903       0.290039821       0.135560486
Nuclear contribution   :     -6.866014105       0.297022730      -0.445387553
                        -----------------------------------------
Total Dipole Moment    :     -0.919828202       0.587062551      -0.309827068
                        -----------------------------------------
Magnitude (a.u.)       :      1.134336446
Magnitude (Debye)      :      2.883254110

Rotational constants in cm-1:             0.929032             0.085071             0.081307
Rotational constants in MHz :         27851.686944          2550.377627          2437.528899

                             ****ORCA TERMINATED NORMALLY****
TOTAL RUN TIME: 0 days 0 hours 0 minutes 9 seconds 173 msec
