                         Program Version 6.1.0  -  RELEASE   -
|  1> ! B3LYP def2-SVP d3 EnGrad
|  2> %pal nprocs 6 end
|  3> *xyz 0 1
|  4> C   -1.07975483777743 9.05620026e-06 0.77254165025051
|  5> H   -1.3618816419366 0.92642094764808 1.27965305119271
|  6> H   -1.36189070898468 -0.92639417692472 1.27966336929002
|  7> C   -1.07975270774525 2.33931569e-06 -0.77254283842738
|  8> H   -1.36188774781618 -0.9264060605609 -1.27965563974819
|  9> H   -1.36187901402247 0.92640862102155 -1.2796642602323
| 10> C   0.18155483184795 -5.6912341e-07 5.353364e-08
| 11> F   0.95756534349427 -1.10155349600781 4.54304589e-06
| 12> F   0.9575764829404 1.10154433843124 -4.92890491e-06
| 13> *
| 14>
| 15>                          ****END OF INPUT****

CARTESIAN COORDINATES (ANGSTROEM)
---------------------------------
  C     -1.079755    0.000009    0.772542
  H     -1.361882    0.926421    1.279653
  H     -1.361891   -0.926394    1.279663
  C     -1.079753    0.000002   -0.772543
  H     -1.361888   -0.926406   -1.279656
  H     -1.361879    0.926409   -1.279664
  C      0.181555   -0.000001    0.000000
  F      0.957565   -1.101553    0.000005
  F      0.957576    1.101544   -0.000005

 Total Charge           Charge          ....    0
 Multiplicity           Mult            ....    1
 Number of Electrons    NEL             ....   40
 Basis Dimension        Dim             ....   90

ORBITAL ENERGIES
----------------

  NO   OCC          E(Eh)            E(eV)
   0   2.0000     -24.692660      -671.9214
   1   2.0000     -24.692585      -671.9194
   2   2.0000     -10.343859      -281.4707
   3   2.0000     -10.207617      -277.7634
   4   2.0000     -10.207587      -277.7626
   5   2.0000      -1.234740       -33.5990
   6   2.0000      -1.176048       -32.0019
   7   2.0000      -0.870007       -23.6741
   8   2.0000      -0.627155       -17.0658
   9   2.0000      -0.621522       -16.9125
  10   2.0000      -0.560664       -15.2564
  11   2.0000      -0.531096       -14.4519
  12   2.0000      -0.488574       -13.2948
  13   2.0000      -0.464129       -12.6296
  14   2.0000      -0.441109       -12.0032
  15   2.0000      -0.424847       -11.5607
  16   2.0000      -0.395753       -10.7690
  17   2.0000      -0.383378       -10.4322
  18   2.0000      -0.329130        -8.9561
  19   2.0000      -0.289078        -7.8662
  20   0.0000       0.062761         1.7078
  21   0.0000       0.071176         1.9368
  22   0.0000       0.096634         2.6296
  23   0.0000       0.140477         3.8226
  24   0.0000       0.164222         4.4687

MULLIKEN ATOMIC CHARGES
-----------------------
   0 C :   -0.092762
   1 H :    0.053039
   2 H :    0.053039
   3 C :   -0.092762
   4 H :    0.053039
   5 H :    0.053039
   6 C :    0.365216
   7 F :   -0.195924
   8 F :   -0.195924
Sum of atomic charges:   -0.0000000

LOEWDIN ATOMIC CHARGES
----------------------
   0 C :   -0.056812
   1 H :    0.038337
   2 H :    0.038337
   3 C :   -0.056812
   4 H :    0.038337
   5 H :    0.038337
   6 C :    0.124334
   7 F :   -0.082030
   8 F :   -0.082030

  Mayer bond orders larger than 0.100000
B(  0-C ,  1-H ) :   0.9429 B(  0-C ,  2-H ) :   0.9429 B(  0-C ,  3-C ) :   0.9653
B(  0-C ,  6-C ) :   1.0067 B(  3-C ,  4-H ) :   0.9429 B(  3-C ,  5-H ) :   0.9429
B(  3-C ,  6-C ) :   1.0067 B(  6-C ,  7-F ) :   1.0978 B(  6-C ,  8-F ) :   1.0978

Dispersion correction           -0.008522402
FINAL SINGLE POINT ENERGY      -315.989329046411
Dispersion correction             ... done (  0.1 sec)

DIPOLE MOMENT
-------------

Method             : SCF
Type of density    : Electron Density
Multiplicity       :   1
Irrep              :   0
Energy             :  -315.9808066446552175 Eh
Basis              : AO
                                X                 Y                 Z
Electronic contribution:      6.274730870      -0.000032061       0.000001797
Nuclear contribution   :     -7.058842208       0.000036352      -0.000002311
                        -----------------------------------------
Total Dipole Moment    :     -0.784111337       0.000004292      -0.000000515
                        -----------------------------------------
Magnitude (a.u.)       :      0.784111337
Magnitude (Debye)      :      1.993052628

Rotational constants in cm-1:             0.239100             0.185233             0.140910
Rotational constants in MHz :          7168.042505          5553.134183          4224.388731

                             ****ORCA TERMINATED NORMALLY****
TOTAL RUN TIME: 0 days 0 hours 0 minutes 9 seconds 901 msec
