                         Program Version 6.1.0  -  RELEASE   -
|  1> ! B3LYP def2-SVP d3 EnGrad
|  2> %pal nprocs 6 end
|  3> *xyz 0 1
|  4> C   0.34560081727046 1.10868401913172 -2.02365188950893
|  5> C   0.26975627175329 0.27387205397537 -0.77763674802303
|  6> C   0.79525572244583 0.73504405939783 0.46149499493309
|  7> C   0.90886499132524 -0.18084804112484 1.61392781192153
|  8> O   1.31335789448611 -1.4904237627885 1.2948861328842
|  9> Cl   -1.73721771681826 -2.34886799220421 -0.37556770543041
| 10> S   -2.24041415905539 -0.57806108246918 0.65495043865322
| 11> O   -1.25977227672199 0.46147004443499 -0.22772866337735
| 12> Cl   -4.32359858685005 -1.4566441408156 1.30675035694346
| 13> H   -0.40782315185997 0.7660842731423 -2.74737200807602
| 14> H   1.34079000502651 1.00587535589461 -2.48649464106692
| 15> H   0.16680349797564 2.17147431268777 -1.80265228929265
| 16> H   0.35593424415997 -0.80685768990541 -0.93568752650097
| 17> H   0.87599738022148 1.8137053779369 0.63110225767334
| 18> H   1.50837170874227 0.27519306761215 2.42602040549731
| 19> H   -0.13052835917498 -0.29540204903489 2.0305450598475
| 20> H   2.21862171707382 -1.45429780587099 0.95711401292266
| 21> *
| 22>
| 23>                          ****END OF INPUT****

CARTESIAN COORDINATES (ANGSTROEM)
---------------------------------
  C      0.345601    1.108684   -2.023652
  C      0.269756    0.273872   -0.777637
  C      0.795256    0.735044    0.461495
  C      0.908865   -0.180848    1.613928
  O      1.313358   -1.490424    1.294886
  Cl    -1.737218   -2.348868   -0.375568
  S     -2.240414   -0.578061    0.654950
  O     -1.259772    0.461470   -0.227729
  Cl    -4.323599   -1.456644    1.306750
  H     -0.407823    0.766084   -2.747372
  H      1.340790    1.005875   -2.486495
  H      0.166803    2.171474   -1.802652
  H      0.355934   -0.806858   -0.935688
  H      0.875997    1.813705    0.631102
  H      1.508372    0.275193    2.426020
  H     -0.130528   -0.295402    2.030545
  H      2.218622   -1.454298    0.957114

 Total Charge           Charge          ....    0
 Multiplicity           Mult            ....    1
 Number of Electrons    NEL             ....   98
 Basis Dimension        Dim             ....  178

ORBITAL ENERGIES
----------------

  NO   OCC          E(Eh)            E(eV)
   0   2.0000    -101.513242     -2762.3157
   1   2.0000    -101.419633     -2759.7685
   2   2.0000     -88.973075     -2421.0805
   3   2.0000     -19.197151      -522.3810
   4   2.0000     -19.158433      -521.3275
   5   2.0000     -10.271791      -279.5096
   6   2.0000     -10.269936      -279.4592
   7   2.0000     -10.250431      -278.9284
   8   2.0000     -10.212896      -277.9070
   9   2.0000      -9.467272      -257.6176
  10   2.0000      -9.372785      -255.0464
  11   2.0000      -8.054200      -219.1659
  12   2.0000      -7.237239      -196.9353
  13   2.0000      -7.225952      -196.6282
  14   2.0000      -7.225717      -196.6217
  15   2.0000      -7.139584      -194.2780
  16   2.0000      -7.133587      -194.1148
  17   2.0000      -7.133042      -194.0999
  18   2.0000      -6.025036      -163.9496
  19   2.0000      -6.021135      -163.8434
  20   2.0000      -6.011531      -163.5821
  21   2.0000      -1.041807       -28.3490
  22   2.0000      -1.030102       -28.0305
  23   2.0000      -0.860326       -23.4107
  24   2.0000      -0.822977       -22.3943
  25   2.0000      -0.759015       -20.6539
  26   2.0000      -0.738708       -20.1013
  27   2.0000      -0.686936       -18.6925
  28   2.0000      -0.653691       -17.7878
  29   2.0000      -0.600413       -16.3381
  30   2.0000      -0.539086       -14.6693
  31   2.0000      -0.521147       -14.1811
  32   2.0000      -0.497131       -13.5276
  33   2.0000      -0.473967       -12.8973
  34   2.0000      -0.465321       -12.6620
  35   2.0000      -0.442027       -12.0282
  36   2.0000      -0.422501       -11.4968
  37   2.0000      -0.420204       -11.4343
  38   2.0000      -0.397624       -10.8199
  39   2.0000      -0.394735       -10.7413
  40   2.0000      -0.360231        -9.8024
  41   2.0000      -0.353855        -9.6289
  42   2.0000      -0.333320        -9.0701
  43   2.0000      -0.323710        -8.8086
  44   2.0000      -0.308076        -8.3832
  45   2.0000      -0.274736        -7.4759
  46   2.0000      -0.251638        -6.8474
  47   2.0000      -0.241881        -6.5819
  48   2.0000      -0.223891        -6.0924
  49   0.0000      -0.131578        -3.5804
  50   0.0000      -0.087432        -2.3791
  51   0.0000       0.001340         0.0365
  52   0.0000       0.037420         1.0183
  53   0.0000       0.053975         1.4687

MULLIKEN ATOMIC CHARGES
-----------------------
   0 C :    0.088640
   1 C :    0.099901
   2 C :   -0.101178
   3 C :    0.253122
   4 O :   -0.297874
   5 Cl:   -0.110460
   6 S :    0.487085
   7 O :   -0.449524
   8 Cl:   -0.371371
   9 H :    0.039520
  10 H :    0.030577
  11 H :    0.023348
  12 H :    0.036183
  13 H :    0.036373
  14 H :    0.021200
  15 H :    0.048278
  16 H :    0.166181
Sum of atomic charges:    0.0000000

LOEWDIN ATOMIC CHARGES
----------------------
   0 C :   -0.045788
   1 C :    0.080735
   2 C :    0.019644
   3 C :    0.055244
   4 O :   -0.121731
   5 Cl:   -0.072025
   6 S :    0.477084
   7 O :   -0.332985
   8 Cl:   -0.362983
   9 H :    0.042414
  10 H :    0.038541
  11 H :    0.034142
  12 H :    0.015542
  13 H :    0.034591
  14 H :    0.024901
  15 H :    0.033216
  16 H :    0.079459

  Mayer bond orders larger than 0.100000
B(  0-C ,  1-C ) :   1.0905 B(  0-C ,  9-H ) :   0.9518 B(  0-C , 10-H ) :   0.9549
B(  0-C , 11-H ) :   0.9530 B(  1-C ,  2-C ) :   1.2099 B(  1-C ,  7-O ) :   0.5982
B(  1-C , 12-H ) :   0.9249 B(  2-C ,  3-C ) :   1.1061 B(  2-C ,  6-S ) :   0.2639
B(  2-C ,  7-O ) :   0.2085 B(  2-C ,  8-Cl) :   0.1180 B(  2-C , 13-H ) :   0.9469
B(  3-C ,  4-O ) :   1.0491 B(  3-C , 14-H ) :   0.9284 B(  3-C , 15-H ) :   0.8526
B(  4-O , 16-H ) :   0.9777 B(  5-Cl,  6-S ) :   0.9401 B(  6-S ,  7-O ) :   0.9094
B(  6-S ,  8-Cl) :   0.6148 B(  7-O ,  8-Cl) :   0.1172

Dispersion correction           -0.032641426
FINAL SINGLE POINT ENERGY     -1625.191040943032
Dispersion correction             ... done (  0.0 sec)

DIPOLE MOMENT
-------------

Method             : SCF
Type of density    : Electron Density
Multiplicity       :   1
Irrep              :   0
Energy             : -1625.1583995170492472 Eh
Basis              : AO
                                X                 Y                 Z
Electronic contribution:    -17.030678318     -10.612023116       3.932524615
Nuclear contribution   :     20.121552996      11.982420360      -4.586036983
                        -----------------------------------------
Total Dipole Moment    :      3.090874678       1.370397244      -0.653512368
                        -----------------------------------------
Magnitude (a.u.)       :      3.443627927
Magnitude (Debye)      :      8.753006578

Rotational constants in cm-1:             0.046866             0.018230             0.017027
Rotational constants in MHz :          1405.013748           546.513511           510.454868

                             ****ORCA TERMINATED NORMALLY****
TOTAL RUN TIME: 0 days 0 hours 0 minutes 33 seconds 459 msec
