                         Program Version 6.1.0  -  RELEASE   -
|  1> ! B3LYP def2-SVP d3 EnGrad
|  2> %pal nprocs 6 end
|  3> *xyz 0 1
|  4> C   2.04812091725484 0.62988921909618 -0.2954009405574
|  5> C   0.7868710636258 0.66681589708824 0.34397215620128
|  6> C   -0.15047955497722 0.1065641407307 -0.5655209817338
|  7> C   -0.32300561323794 -1.39879595783232 -0.7195997444325
|  8> O   -1.41275430423976 0.68683038251174 -0.68884449143532
|  9> H   2.21885326887482 1.2883339966068 -1.15567803814373
| 10> H   1.16719418615733 0.02617304213443 -1.359590904652
| 11> H   2.98405610141294 0.43094274947958 0.25712649556848
| 12> H   0.6248555829033 -1.93094547859645 -0.57629314923792
| 13> H   -0.74259515683608 -1.6546984627522 -1.70439634183949
| 14> H   -1.04390616032839 -1.74329128695681 0.0457289757495
| 15> H   -1.31119095888631 1.6441873473194 -0.59409847285715
| 16> H   0.53247504190569 1.02633770132516 1.34948487213748
| 17> H   -2.02553818226227 0.3855539848152 1.20439680787211
| 18> O   -1.86261915385095 0.35874549537805 2.16187791962296
| 19> H   -1.49033707751578 -0.5226427703477 2.2968358377375
| 20> *
| 21>
| 22>                          ****END OF INPUT****

CARTESIAN COORDINATES (ANGSTROEM)
---------------------------------
  C      2.048121    0.629889   -0.295401
  C      0.786871    0.666816    0.343972
  C     -0.150480    0.106564   -0.565521
  C     -0.323006   -1.398796   -0.719600
  O     -1.412754    0.686830   -0.688844
  H      2.218853    1.288334   -1.155678
  H      1.167194    0.026173   -1.359591
  H      2.984056    0.430943    0.257126
  H      0.624856   -1.930945   -0.576293
  H     -0.742595   -1.654698   -1.704396
  H     -1.043906   -1.743291    0.045729
  H     -1.311191    1.644187   -0.594098
  H      0.532475    1.026338    1.349485
  H     -2.025538    0.385554    1.204397
  O     -1.862619    0.358745    2.161878
  H     -1.490337   -0.522643    2.296836

 Total Charge           Charge          ....    0
 Multiplicity           Mult            ....    1
 Number of Electrons    NEL             ....   50
 Basis Dimension        Dim             ....  134

ORBITAL ENERGIES
----------------

  NO   OCC          E(Eh)            E(eV)
   0   2.0000     -19.165511      -521.5201
   1   2.0000     -19.108704      -519.9743
   2   2.0000     -10.252465      -278.9838
   3   2.0000     -10.203825      -277.6602
   4   2.0000     -10.194490      -277.4062
   5   2.0000     -10.192080      -277.3406
   6   2.0000      -1.043616       -28.3982
   7   2.0000      -0.967166       -26.3179
   8   2.0000      -0.808207       -21.9924
   9   2.0000      -0.724370       -19.7111
  10   2.0000      -0.623648       -16.9703
  11   2.0000      -0.575264       -15.6537
  12   2.0000      -0.527750       -14.3608
  13   2.0000      -0.501945       -13.6586
  14   2.0000      -0.452470       -12.3123
  15   2.0000      -0.442984       -12.0542
  16   2.0000      -0.426366       -11.6020
  17   2.0000      -0.407404       -11.0860
  18   2.0000      -0.395161       -10.7529
  19   2.0000      -0.374013       -10.1774
  20   2.0000      -0.354829        -9.6554
  21   2.0000      -0.338941        -9.2231
  22   2.0000      -0.287057        -7.8112
  23   2.0000      -0.272698        -7.4205
  24   2.0000      -0.222308        -6.0493
  25   0.0000      -0.044492        -1.2107
  26   0.0000       0.042948         1.1687
  27   0.0000       0.054850         1.4925
  28   0.0000       0.067671         1.8414
  29   0.0000       0.101621         2.7653

MULLIKEN ATOMIC CHARGES
-----------------------
   0 C :   -0.010983
   1 C :   -0.123961
   2 C :   -0.018609
   3 C :    0.102157
   4 O :   -0.250097
   5 H :    0.060505
   6 H :   -0.009087
   7 H :    0.021805
   8 H :    0.020198
   9 H :    0.028925
  10 H :   -0.010214
  11 H :    0.183581
  12 H :    0.010049
  13 H :    0.141598
  14 O :   -0.298273
  15 H :    0.152406
Sum of atomic charges:    0.0000000

LOEWDIN ATOMIC CHARGES
----------------------
   0 C :   -0.063012
   1 C :   -0.072857
   2 C :   -0.013858
   3 C :   -0.042406
   4 O :   -0.073026
   5 H :    0.037539
   6 H :    0.067678
   7 H :    0.010895
   8 H :    0.032894
   9 H :    0.028345
  10 H :    0.014505
  11 H :    0.086242
  12 H :    0.013261
  13 H :    0.046115
  14 O :   -0.143459
  15 H :    0.071143

  Mayer bond orders larger than 0.100000
B(  0-C ,  1-C ) :   1.4457 B(  0-C ,  5-H ) :   0.9244 B(  0-C ,  6-H ) :   0.4883
B(  0-C ,  7-H ) :   0.9499 B(  1-C ,  2-C ) :   1.3687 B(  1-C , 12-H ) :   0.9713
B(  2-C ,  3-C ) :   1.0686 B(  2-C ,  4-O ) :   1.0174 B(  2-C ,  6-H ) :   0.4465
B(  3-C ,  8-H ) :   0.9608 B(  3-C ,  9-H ) :   0.9592 B(  3-C , 10-H ) :   0.9419
B(  4-O , 11-H ) :   0.9644 B( 13-H , 14-O ) :   0.9707 B( 14-O , 15-H ) :   1.0052

Dispersion correction           -0.020174521
FINAL SINGLE POINT ENERGY      -308.350575413055
Dispersion correction             ... done (  0.1 sec)

DIPOLE MOMENT
-------------

Method             : SCF
Type of density    : Electron Density
Multiplicity       :   1
Irrep              :   0
Energy             :  -308.3304008919586749 Eh
Basis              : AO
                                X                 Y                 Z
Electronic contribution:     -2.728471427       2.492208308       0.606103797
Nuclear contribution   :      3.223059370      -2.611650638      -1.085269151
                        -----------------------------------------
Total Dipole Moment    :      0.494587943      -0.119442330      -0.479165354
                        -----------------------------------------
Magnitude (a.u.)       :      0.698915689
Magnitude (Debye)      :      1.776502500

Rotational constants in cm-1:             0.126315             0.069242             0.058525
Rotational constants in MHz :          3786.831870          2075.816891          1754.529509

                             ****ORCA TERMINATED NORMALLY****
TOTAL RUN TIME: 0 days 0 hours 0 minutes 17 seconds 86 msec
