                         Program Version 6.1.0  -  RELEASE   -
|  1> ! B3LYP def2-SVP d3 EnGrad
|  2> %pal nprocs 6 end
|  3> *xyz 0 1
|  4> C   -0.79414340793005 -0.15996797003188 1.01924314016194
|  5> O   -0.05106356179758 0.71907514745111 1.49626687051028
|  6> Mg   1.12234378344682 1.92086920857527 0.26782009613291
|  7> Br   0.80971727457778 4.27307461380686 0.60017854965068
|  8> C   1.88586353986233 0.39970994888703 -0.97369065173585
|  9> C   2.09912270195408 -0.90247254299725 -0.46859998489934
| 10> C   1.9211663104971 0.52854190064795 -2.37822112590056
| 11> C   2.31643454805346 -2.00730453382018 -1.30076009129654
| 12> H   2.08385473685015 -1.07961769821594 0.61436480376296
| 13> C   2.12781575576532 -0.5666432603171 -3.22742524050915
| 14> H   1.76282316020856 1.51056376073415 -2.84021725938802
| 15> C   2.32294026921719 -1.84230279219123 -2.68982851539364
| 16> H   2.48061615101582 -2.99903965095394 -0.86715006850691
| 17> H   2.13439795550827 -0.42519623701596 -4.31287110804426
| 18> H   2.48653476745084 -2.70055876583814 -3.34786443485441
| 19> C   -1.31358766813677 0.02644871824466 -0.35748390644049
| 20> C   -1.24830936564004 -1.01332333691505 -1.30116263670991
| 21> C   -1.69393471861758 1.31979252632208 -0.76705189506746
| 22> C   -1.53853880357392 -0.75407910018212 -2.63957439289361
| 23> H   -0.89303676666563 -1.99934348491806 -1.00044959685232
| 24> C   -2.0105667431238 1.56389087173329 -2.10273134323264
| 25> H   -1.74670292293494 2.13101704563123 -0.03522712400909
| 26> C   -1.92388380414898 0.52897615813879 -3.04024013523912
| 27> H   -1.43745519816946 -1.55243627132888 -3.37754669935138
| 28> H   -2.31107913798288 2.56693938476673 -2.41323881726253
| 29> H   -2.14593777006754 0.72709875627794 -4.09161620941724
| 30> C   -1.10056020704697 -1.37196905976889 1.80113033197207
| 31> C   -2.20690338667713 -2.18788317890129 1.49760590401974
| 32> C   -0.27421164842088 -1.7006821158406 2.89352656688639
| 33> C   -2.47212849845421 -3.32051737426488 2.26715413876374
| 34> H   -2.86797709343345 -1.92117021540373 0.67202006638079
| 35> C   -0.53636560855636 -2.83810613699772 3.65137627703002
| 36> H   0.5741769902848 -1.05368245969316 3.12193149777419
| 37> C   -1.63478476487362 -3.64958798750848 3.33786857963538
| 38> H   -3.33587089721757 -3.94707585575558 2.03400752423256
| 39> H   0.11410150244968 -3.09789762734269 4.48956049356088
| 40> H   -1.83993448367279 -4.54186838501434 3.93460735652994
| 41> *
| 42>
| 43>                          ****END OF INPUT****

CARTESIAN COORDINATES (ANGSTROEM)
---------------------------------
  C     -0.794143   -0.159968    1.019243
  O     -0.051064    0.719075    1.496267
  Mg     1.122344    1.920869    0.267820
  Br     0.809717    4.273075    0.600179
  C      1.885864    0.399710   -0.973691
  C      2.099123   -0.902473   -0.468600
  C      1.921166    0.528542   -2.378221
  C      2.316435   -2.007305   -1.300760
  H      2.083855   -1.079618    0.614365
  C      2.127816   -0.566643   -3.227425
  H      1.762823    1.510564   -2.840217
  C      2.322940   -1.842303   -2.689829
  H      2.480616   -2.999040   -0.867150
  H      2.134398   -0.425196   -4.312871
  H      2.486535   -2.700559   -3.347864
  C     -1.313588    0.026449   -0.357484
  C     -1.248309   -1.013323   -1.301163
  C     -1.693935    1.319793   -0.767052
  C     -1.538539   -0.754079   -2.639574
  H     -0.893037   -1.999343   -1.000450
  C     -2.010567    1.563891   -2.102731
  H     -1.746703    2.131017   -0.035227
  C     -1.923884    0.528976   -3.040240
  H     -1.437455   -1.552436   -3.377547
  H     -2.311079    2.566939   -2.413239
  H     -2.145938    0.727099   -4.091616
  C     -1.100560   -1.371969    1.801130
  C     -2.206903   -2.187883    1.497606
  C     -0.274212   -1.700682    2.893527
  C     -2.472128   -3.320517    2.267154
  H     -2.867977   -1.921170    0.672020
  C     -0.536366   -2.838106    3.651376
  H      0.574177   -1.053682    3.121931
  C     -1.634785   -3.649588    3.337869
  H     -3.335871   -3.947076    2.034008
  H      0.114102   -3.097898    4.489560
  H     -1.839934   -4.541868    3.934607

 Total Charge           Charge          ....    0
 Multiplicity           Mult            ....    1
 Number of Electrons    NEL             ....  184
 Basis Dimension        Dim             ....  405

ORBITAL ENERGIES
----------------

  NO   OCC          E(Eh)            E(eV)
   0   2.0000    -482.712215    -13135.2672
   1   2.0000     -62.395261     -1697.8614
   2   2.0000     -56.225899     -1529.9845
   3   2.0000     -56.225411     -1529.9712
   4   2.0000     -56.225376     -1529.9703
   5   2.0000     -46.810438     -1273.7768
   6   2.0000     -19.175068      -521.7801
   7   2.0000     -10.318818      -280.7893
   8   2.0000     -10.228914      -278.3429
   9   2.0000     -10.228476      -278.3310
  10   2.0000     -10.227565      -278.3062
  11   2.0000     -10.225890      -278.2606
  12   2.0000     -10.224811      -278.2312
  13   2.0000     -10.222299      -278.1629
  14   2.0000     -10.221244      -278.1342
  15   2.0000     -10.220135      -278.1040
  16   2.0000     -10.219691      -278.0919
  17   2.0000     -10.217480      -278.0318
  18   2.0000     -10.214826      -277.9596
  19   2.0000     -10.214094      -277.9396
  20   2.0000     -10.172254      -276.8011
  21   2.0000     -10.171210      -276.7727
  22   2.0000     -10.169937      -276.7381
  23   2.0000     -10.167066      -276.6599
  24   2.0000     -10.164977      -276.6031
  25   2.0000     -10.135833      -275.8100
  26   2.0000      -8.612612      -234.3611
  27   2.0000      -6.439914      -175.2390
  28   2.0000      -6.436561      -175.1477
  29   2.0000      -6.436159      -175.1368
  30   2.0000      -3.096672       -84.2647
  31   2.0000      -2.555400       -69.5360
  32   2.0000      -2.554337       -69.5070
  33   2.0000      -2.554096       -69.5005
  34   2.0000      -2.551382       -69.4266
  35   2.0000      -2.551365       -69.4262
  36   2.0000      -1.845516       -50.2190
  37   2.0000      -1.843158       -50.1549
  38   2.0000      -1.839625       -50.0587
  39   2.0000      -1.074592       -29.2411
  40   2.0000      -0.884944       -24.0806
  41   2.0000      -0.875515       -23.8240
  42   2.0000      -0.816779       -22.2257
  43   2.0000      -0.799254       -21.7488
  44   2.0000      -0.773890       -21.0586
  45   2.0000      -0.768671       -20.9166
  46   2.0000      -0.763586       -20.7782
  47   2.0000      -0.712159       -19.3788
  48   2.0000      -0.702876       -19.1262
  49   2.0000      -0.689654       -18.7664
  50   2.0000      -0.680131       -18.5073
  51   2.0000      -0.640249       -17.4221
  52   2.0000      -0.630401       -17.1541
  53   2.0000      -0.621632       -16.9155
  54   2.0000      -0.583378       -15.8745
  55   2.0000      -0.570493       -15.5239
  56   2.0000      -0.561792       -15.2871
  57   2.0000      -0.556056       -15.1310
  58   2.0000      -0.534772       -14.5519
  59   2.0000      -0.503400       -13.6982
  60   2.0000      -0.498453       -13.5636
  61   2.0000      -0.490976       -13.3601
  62   2.0000      -0.482797       -13.1376
  63   2.0000      -0.476523       -12.9668
  64   2.0000      -0.465725       -12.6730
  65   2.0000      -0.458811       -12.4849
  66   2.0000      -0.454605       -12.3704
  67   2.0000      -0.448701       -12.2098
  68   2.0000      -0.435636       -11.8543
  69   2.0000      -0.423778       -11.5316
  70   2.0000      -0.419870       -11.4252
  71   2.0000      -0.401493       -10.9252
  72   2.0000      -0.396137       -10.7794
  73   2.0000      -0.392816       -10.6891
  74   2.0000      -0.388924       -10.5831
  75   2.0000      -0.385840       -10.4992
  76   2.0000      -0.375536       -10.2189
  77   2.0000      -0.370223       -10.0743
  78   2.0000      -0.365779        -9.9533
  79   2.0000      -0.342525        -9.3206
  80   2.0000      -0.322991        -8.7890
  81   2.0000      -0.316753        -8.6193
  82   2.0000      -0.294112        -8.0032
  83   2.0000      -0.289358        -7.8738
  84   2.0000      -0.285791        -7.7768
  85   2.0000      -0.282786        -7.6950
  86   2.0000      -0.278326        -7.5736
  87   2.0000      -0.241286        -6.5657
  88   2.0000      -0.240349        -6.5402
  89   2.0000      -0.233990        -6.3672
  90   2.0000      -0.230986        -6.2854
  91   2.0000      -0.223468        -6.0809
  92   0.0000      -0.109426        -2.9776
  93   0.0000      -0.046122        -1.2551
  94   0.0000      -0.041427        -1.1273
  95   0.0000      -0.033088        -0.9004
  96   0.0000      -0.000815        -0.0222

MULLIKEN ATOMIC CHARGES
-----------------------
   0 C :    0.259268
   1 O :   -0.329917
   2 Mg:    0.515548
   3 Br:   -0.360162
   4 C :   -0.211953
   5 C :   -0.035451
   6 C :   -0.024596
   7 C :    0.017615
   8 H :   -0.034496
   9 C :    0.021926
  10 H :   -0.020420
  11 C :   -0.002310
  12 H :   -0.036931
  13 H :   -0.034727
  14 H :   -0.030140
  15 C :   -0.040642
  16 C :    0.050142
  17 C :   -0.020327
  18 C :    0.034104
  19 H :    0.004185
  20 C :    0.034120
  21 H :    0.043544
  22 C :    0.038246
  23 H :   -0.002060
  24 H :    0.006810
  25 H :    0.000163
  26 C :    0.029389
  27 C :    0.001825
  28 C :    0.017233
  29 C :    0.019313
  30 H :    0.006369
  31 C :    0.027737
  32 H :    0.012402
  33 C :    0.042992
  34 H :   -0.002162
  35 H :    0.000151
  36 H :    0.003212
Sum of atomic charges:   -0.0000000

LOEWDIN ATOMIC CHARGES
----------------------
   0 C :    0.193286
   1 O :   -0.053304
   2 Mg:   -0.292157
   3 Br:    0.024611
   4 C :   -0.166928
   5 C :   -0.024181
   6 C :   -0.008341
   7 C :   -0.042513
   8 H :    0.018338
   9 C :   -0.036005
  10 H :    0.024555
  11 C :   -0.042781
  12 H :    0.017672
  13 H :    0.018737
  14 H :    0.019537
  15 C :   -0.040438
  16 C :    0.021854
  17 C :    0.025491
  18 C :   -0.004499
  19 H :    0.035682
  20 C :   -0.000677
  21 H :    0.065538
  22 C :    0.005921
  23 H :    0.035096
  24 H :    0.038923
  25 H :    0.034512
  26 C :   -0.059068
  27 C :    0.010295
  28 C :    0.026960
  29 C :   -0.020278
  30 H :    0.035352
  31 C :   -0.016419
  32 H :    0.040571
  33 C :    0.009799
  34 H :    0.034357
  35 H :    0.035400
  36 H :    0.035101

  Mayer bond orders larger than 0.100000
B(  0-C ,  1-O ) :   1.7131 B(  0-C , 15-C ) :   0.9857 B(  0-C , 26-C ) :   1.0379
B(  1-O ,  2-Mg) :   0.3719 B(  2-Mg,  3-Br) :   1.0622 B(  2-Mg,  4-C ) :   0.7618
B(  4-C ,  5-C ) :   1.3798 B(  4-C ,  6-C ) :   1.3772 B(  5-C ,  7-C ) :   1.4072
B(  5-C ,  8-H ) :   0.9597 B(  6-C ,  9-C ) :   1.3974 B(  6-C , 10-H ) :   0.9708
B(  7-C , 11-C ) :   1.3766 B(  7-C , 12-H ) :   0.9798 B(  9-C , 11-C ) :   1.3826
B(  9-C , 13-H ) :   0.9809 B( 11-C , 14-H ) :   0.9826 B( 15-C , 16-C ) :   1.3512
B( 15-C , 17-C ) :   1.3251 B( 16-C , 18-C ) :   1.3968 B( 16-C , 19-H ) :   0.9774
B( 17-C , 20-C ) :   1.3748 B( 17-C , 21-H ) :   0.9709 B( 18-C , 22-C ) :   1.3746
B( 18-C , 23-H ) :   0.9819 B( 20-C , 22-C ) :   1.3675 B( 20-C , 24-H ) :   0.9851
B( 22-C , 25-H ) :   0.9867 B( 26-C , 27-C ) :   1.3437 B( 26-C , 28-C ) :   1.3345
B( 27-C , 29-C ) :   1.3853 B( 27-C , 30-H ) :   0.9813 B( 28-C , 31-C ) :   1.3857
B( 28-C , 32-H ) :   0.9890 B( 29-C , 33-C ) :   1.3799 B( 29-C , 34-H ) :   0.9837
B( 31-C , 33-C ) :   1.3572 B( 31-C , 35-H ) :   0.9866 B( 33-C , 36-H ) :   0.9854

Dispersion correction           -0.097804618
FINAL SINGLE POINT ENERGY     -3581.109436412803
Dispersion correction             ... done (  0.0 sec)

DIPOLE MOMENT
-------------

Method             : SCF
Type of density    : Electron Density
Multiplicity       :   1
Irrep              :   0
Energy             : -3581.0116317950833036 Eh
Basis              : AO
                                X                 Y                 Z
Electronic contribution:     10.703574285      56.606944672      12.931767347
Nuclear contribution   :    -12.619675639     -59.488727739     -12.751782714
                        -----------------------------------------
Total Dipole Moment    :     -1.916101354      -2.881783068       0.179984633
                        -----------------------------------------
Magnitude (a.u.)       :      3.465330073
Magnitude (Debye)      :      8.808169049

Rotational constants in cm-1:             0.008555             0.005402             0.004477
Rotational constants in MHz :           256.470412           161.960671           134.207881

                             ****ORCA TERMINATED NORMALLY****
TOTAL RUN TIME: 0 days 0 hours 2 minutes 7 seconds 303 msec
