                         Program Version 6.1.0  -  RELEASE   -
|  1> ! B3LYP def2-SVP d3 EnGrad
|  2> %pal nprocs 6 end
|  3> *xyz 0 1
|  4> C   1.1473012913982 -0.44224979007645 -0.10165663249395
|  5> O   1.05879044607176 0.74159725607401 0.42411825061759
|  6> C   -1.05652359100703 0.78044353839428 -0.09652760958842
|  7> O   -0.23596222104257 -1.05167044592045 0.02984172861404
|  8> H   1.82533657276272 -1.16834797207172 0.41318142228
|  9> H   1.30572667868849 -0.52959172107562 -1.20736679379364
| 10> H   -0.9767847473594 1.46766777618656 0.7433279143047
| 11> H   -0.73263187151803 1.17864166135225 -1.05736098397551
| 12> H   -0.35802152994947 -1.16932800802295 0.98860472704735
| 13> H   -1.97723102804468 0.19283770516007 -0.13616202301215
| 14> *
| 15>
| 16>                          ****END OF INPUT****

CARTESIAN COORDINATES (ANGSTROEM)
---------------------------------
  C      1.147301   -0.442250   -0.101657
  O      1.058790    0.741597    0.424118
  C     -1.056524    0.780444   -0.096528
  O     -0.235962   -1.051670    0.029842
  H      1.825337   -1.168348    0.413181
  H      1.305727   -0.529592   -1.207367
  H     -0.976785    1.467668    0.743328
  H     -0.732632    1.178642   -1.057361
  H     -0.358022   -1.169328    0.988605
  H     -1.977231    0.192838   -0.136162

 Total Charge           Charge          ....    0
 Multiplicity           Mult            ....    1
 Number of Electrons    NEL             ....   34
 Basis Dimension        Dim             ....   86

ORBITAL ENERGIES
----------------

  NO   OCC          E(Eh)            E(eV)
   0   2.0000     -19.177092      -521.8352
   1   2.0000     -19.061863      -518.6997
   2   2.0000     -10.269215      -279.4396
   3   2.0000     -10.259462      -279.1742
   4   2.0000      -1.040840       -28.3227
   5   2.0000      -0.927403       -25.2359
   6   2.0000      -0.701893       -19.0995
   7   2.0000      -0.621044       -16.8995
   8   2.0000      -0.512914       -13.9571
   9   2.0000      -0.467441       -12.7197
  10   2.0000      -0.443103       -12.0574
  11   2.0000      -0.433308       -11.7909
  12   2.0000      -0.409490       -11.1428
  13   2.0000      -0.355784        -9.6814
  14   2.0000      -0.346942        -9.4408
  15   2.0000      -0.236076        -6.4240
  16   2.0000      -0.212664        -5.7869
  17   0.0000      -0.069376        -1.8878
  18   0.0000       0.042334         1.1520
  19   0.0000       0.089626         2.4388
  20   0.0000       0.098855         2.6900
  21   0.0000       0.128648         3.5007

MULLIKEN ATOMIC CHARGES
-----------------------
   0 C :    0.322532
   1 O :   -0.454312
   2 C :    0.063214
   3 O :   -0.294041
   4 H :   -0.011621
   5 H :   -0.036070
   6 H :    0.095587
   7 H :    0.083221
   8 H :    0.176542
   9 H :    0.054948
Sum of atomic charges:   -0.0000000

LOEWDIN ATOMIC CHARGES
----------------------
   0 C :    0.109286
   1 O :   -0.341648
   2 C :    0.169051
   3 O :   -0.075058
   4 H :   -0.008678
   5 H :   -0.028684
   6 H :    0.036972
   7 H :    0.043269
   8 H :    0.079263
   9 H :    0.016227

  Mayer bond orders larger than 0.100000
B(  0-C ,  1-O ) :   1.4183 B(  0-C ,  3-O ) :   0.7628 B(  0-C ,  4-H ) :   0.9150
B(  0-C ,  5-H ) :   0.9165 B(  1-O ,  2-C ) :   0.4418 B(  2-C ,  3-O ) :   0.4412
B(  2-C ,  6-H ) :   0.9733 B(  2-C ,  7-H ) :   0.9840 B(  2-C ,  9-H ) :   0.9627
B(  3-O ,  8-H ) :   0.9626

Dispersion correction           -0.009520803
FINAL SINGLE POINT ENERGY      -229.833018871207
Dispersion correction             ... done (  0.1 sec)

DIPOLE MOMENT
-------------

Method             : SCF
Type of density    : Electron Density
Multiplicity       :   1
Irrep              :   0
Energy             :  -229.8234980680583419 Eh
Basis              : AO
                                X                 Y                 Z
Electronic contribution:      1.058654505      -0.437973484       0.730618560
Nuclear contribution   :     -2.060579114       0.053559963      -0.654874626
                        -----------------------------------------
Total Dipole Moment    :     -1.001924608      -0.384413521       0.075743934
                        -----------------------------------------
Magnitude (a.u.)       :      1.075808449
Magnitude (Debye)      :      2.734487765

Rotational constants in cm-1:             0.349387             0.264444             0.169476
Rotational constants in MHz :         10474.350078          7927.840210          5080.774041

                             ****ORCA TERMINATED NORMALLY****
TOTAL RUN TIME: 0 days 0 hours 0 minutes 10 seconds 276 msec
