                         Program Version 6.1.0  -  RELEASE   -
|  1> ! B3LYP def2-SVP d3 EnGrad
|  2> %pal nprocs 6 end
|  3> *xyz 0 1
|  4> C   -1.54624378037474 -1.48643446758673 0.80524107414228
|  5> C   -0.86137702554669 -0.99131051240151 -0.22922222458568
|  6> C   -0.49272452956958 0.44903341780232 -0.4398548386988
|  7> C   -0.62822037823434 1.37416410676962 0.68205650357618
|  8> C   2.00034075998268 -0.39221630810343 -0.5918925404019
|  9> C   1.10314661326604 0.7032423997865 -0.61650340760327
| 10> H   -0.55661760373914 -1.66954839241259 -1.03450587786226
| 11> H   -1.89144547728958 -0.85043899539831 1.62531064004159
| 12> H   -1.79405364649199 -2.55005115536729 0.86169625949847
| 13> H   2.97897013886657 -0.28658079191898 -0.11630211976143
| 14> H   1.66069107193357 -1.41378011305953 -0.77296639739216
| 15> H   1.17979096919955 1.49242969702195 -1.37992130707323
| 16> H   1.25401260151436 1.37191707474313 0.33456694812102
| 17> H   -0.85018752444825 2.42990183047779 0.51587858523768
| 18> H   -0.5624813607352 1.01403531882666 1.71057897591386
| 19> H   -0.99360082833324 0.80563689082038 -1.35416027315235
| 20> *
| 21>
| 22>                          ****END OF INPUT****

CARTESIAN COORDINATES (ANGSTROEM)
---------------------------------
  C     -1.546244   -1.486434    0.805241
  C     -0.861377   -0.991311   -0.229222
  C     -0.492725    0.449033   -0.439855
  C     -0.628220    1.374164    0.682057
  C      2.000341   -0.392216   -0.591893
  C      1.103147    0.703242   -0.616503
  H     -0.556618   -1.669548   -1.034506
  H     -1.891445   -0.850439    1.625311
  H     -1.794054   -2.550051    0.861696
  H      2.978970   -0.286581   -0.116302
  H      1.660691   -1.413780   -0.772966
  H      1.179791    1.492430   -1.379921
  H      1.254013    1.371917    0.334567
  H     -0.850188    2.429902    0.515879
  H     -0.562481    1.014035    1.710579
  H     -0.993601    0.805637   -1.354160

 Total Charge           Charge          ....    0
 Multiplicity           Mult            ....    1
 Number of Electrons    NEL             ....   46
 Basis Dimension        Dim             ....  134

ORBITAL ENERGIES
----------------

  NO   OCC          E(Eh)            E(eV)
   0   2.0000     -10.206477      -277.7324
   1   2.0000     -10.205105      -277.6950
   2   2.0000     -10.193325      -277.3745
   3   2.0000     -10.188869      -277.2532
   4   2.0000     -10.178637      -276.9748
   5   2.0000     -10.171720      -276.7866
   6   2.0000      -0.822103       -22.3706
   7   2.0000      -0.744941       -20.2709
   8   2.0000      -0.700030       -19.0488
   9   2.0000      -0.616410       -16.7734
  10   2.0000      -0.582838       -15.8598
  11   2.0000      -0.520568       -14.1654
  12   2.0000      -0.484356       -13.1800
  13   2.0000      -0.449565       -12.2333
  14   2.0000      -0.445058       -12.1107
  15   2.0000      -0.415425       -11.3043
  16   2.0000      -0.406049       -11.0492
  17   2.0000      -0.389495       -10.5987
  18   2.0000      -0.351448        -9.5634
  19   2.0000      -0.341669        -9.2973
  20   2.0000      -0.329406        -8.9636
  21   2.0000      -0.259196        -7.0531
  22   2.0000      -0.165216        -4.4958
  23   0.0000      -0.071731        -1.9519
  24   0.0000       0.011407         0.3104
  25   0.0000       0.065307         1.7771
  26   0.0000       0.084839         2.3086
  27   0.0000       0.088239         2.4011

MULLIKEN ATOMIC CHARGES
-----------------------
   0 C :   -0.022434
   1 C :   -0.037088
   2 C :   -0.004435
   3 C :   -0.108171
   4 C :   -0.120420
   5 C :    0.018261
   6 H :    0.006661
   7 H :    0.010834
   8 H :    0.017019
   9 H :    0.025357
  10 H :    0.025246
  11 H :    0.050183
  12 H :    0.035432
  13 H :    0.039104
  14 H :    0.047033
  15 H :    0.017417
Sum of atomic charges:    0.0000000

LOEWDIN ATOMIC CHARGES
----------------------
   0 C :   -0.060256
   1 C :   -0.019500
   2 C :   -0.032626
   3 C :   -0.055678
   4 C :   -0.117924
   5 C :   -0.011897
   6 H :    0.025147
   7 H :    0.018508
   8 H :    0.023906
   9 H :    0.016095
  10 H :    0.013497
  11 H :    0.049563
  12 H :    0.072052
  13 H :    0.020521
  14 H :    0.022138
  15 H :    0.036454

  Mayer bond orders larger than 0.100000
B(  0-C ,  1-C ) :   2.0119 B(  0-C ,  7-H ) :   0.9418 B(  0-C ,  8-H ) :   0.9457
B(  1-C ,  2-C ) :   1.0395 B(  1-C ,  6-H ) :   0.9512 B(  2-C ,  3-C ) :   1.1600
B(  2-C ,  5-C ) :   0.8985 B(  2-C , 15-H ) :   0.9084 B(  3-C ,  4-C ) :   0.5557
B(  3-C , 12-H ) :   0.2001 B(  3-C , 13-H ) :   0.9593 B(  3-C , 14-H ) :   0.9518
B(  4-C ,  5-C ) :   1.3761 B(  4-C ,  9-H ) :   0.9653 B(  4-C , 10-H ) :   0.9591
B(  5-C , 11-H ) :   0.9027 B(  5-C , 12-H ) :   0.7725

Dispersion correction           -0.022629447
FINAL SINGLE POINT ENERGY      -234.151776612771
Dispersion correction             ... done (  0.0 sec)

DIPOLE MOMENT
-------------

Method             : SCF
Type of density    : Electron Density
Multiplicity       :   1
Irrep              :   0
Energy             :  -234.1291471662649997 Eh
Basis              : AO
                                X                 Y                 Z
Electronic contribution:     -1.056069774      -0.482821803      -0.900295331
Nuclear contribution   :      0.932966859       0.753964663       0.856361555
                        -----------------------------------------
Total Dipole Moment    :     -0.123102916       0.271142860      -0.043933777
                        -----------------------------------------
Magnitude (a.u.)       :      0.301003247
Magnitude (Debye)      :      0.765089452

Rotational constants in cm-1:             0.165316             0.093323             0.068848
Rotational constants in MHz :          4956.054510          2797.763076          2064.004540

                             ****ORCA TERMINATED NORMALLY****
TOTAL RUN TIME: 0 days 0 hours 0 minutes 20 seconds 320 msec
