                         Program Version 6.1.0  -  RELEASE   -
|  1> ! B3LYP def2-SVP d3 EnGrad
|  2> %pal nprocs 6 end
|  3> *xyz 0 1
|  4> C   -3.18397288778485 0.97827242137061 0.98964269738751
|  5> C   -2.33741859020878 0.23545296144369 0.00315870441266
|  6> C   -2.34029664428221 -1.09751492617647 -0.1812111966755
|  7> C   -1.40269957958522 -1.80586987080262 -1.11534531262813
|  8> O   -0.14096547661432 -2.1496973142671 -0.51684349635967
|  9> Cl   2.59278850182883 -0.72934823491414 1.06024774023774
| 10> S   0.8995034591937 0.13762410274072 0.21269617599356
| 11> O   -1.49877181367486 1.00649277676866 -0.75258241670189
| 12> Cl   1.16864750571241 2.19455596584061 0.70996104667215
| 13> H   -3.82253979044658 1.71993655120156 0.47841205743308
| 14> H   -2.53983261443912 1.52750366117652 1.7001397793537
| 15> H   -3.82655640931093 0.29755224385683 1.56321909744596
| 16> H   -1.4050918833852 1.89127266690149 -0.37133694653066
| 17> H   -3.03575062548132 -1.69170925795449 0.41724784222595
| 18> H   -1.87998204880644 -2.721318258802 -1.51077590052547
| 19> H   -1.14801274903582 -1.1650024283771 -1.9712576277352
| 20> H   -0.31771535367925 -2.53613906000679 0.35310675599422
| 21> *
| 22>
| 23>                          ****END OF INPUT****

CARTESIAN COORDINATES (ANGSTROEM)
---------------------------------
  C     -3.183973    0.978272    0.989643
  C     -2.337419    0.235453    0.003159
  C     -2.340297   -1.097515   -0.181211
  C     -1.402700   -1.805870   -1.115345
  O     -0.140965   -2.149697   -0.516843
  Cl     2.592789   -0.729348    1.060248
  S      0.899503    0.137624    0.212696
  O     -1.498772    1.006493   -0.752582
  Cl     1.168648    2.194556    0.709961
  H     -3.822540    1.719937    0.478412
  H     -2.539833    1.527504    1.700140
  H     -3.826556    0.297552    1.563219
  H     -1.405092    1.891273   -0.371337
  H     -3.035751   -1.691709    0.417248
  H     -1.879982   -2.721318   -1.510776
  H     -1.148013   -1.165002   -1.971258
  H     -0.317715   -2.536139    0.353107

 Total Charge           Charge          ....    0
 Multiplicity           Mult            ....    1
 Number of Electrons    NEL             ....   98
 Basis Dimension        Dim             ....  178

ORBITAL ENERGIES
----------------

  NO   OCC          E(Eh)            E(eV)
   0   2.0000    -101.504078     -2762.0664
   1   2.0000    -101.500015     -2761.9558
   2   2.0000     -88.917344     -2419.5640
   3   2.0000     -19.179220      -521.8931
   4   2.0000     -19.144602      -520.9511
   5   2.0000     -10.259450      -279.1738
   6   2.0000     -10.236699      -278.5547
   7   2.0000     -10.209071      -277.8029
   8   2.0000     -10.179072      -276.9866
   9   2.0000      -9.458134      -257.3689
  10   2.0000      -9.453544      -257.2440
  11   2.0000      -8.005259      -217.8342
  12   2.0000      -7.227985      -196.6835
  13   2.0000      -7.222908      -196.5453
  14   2.0000      -7.217544      -196.3994
  15   2.0000      -7.216060      -196.3590
  16   2.0000      -7.213298      -196.2838
  17   2.0000      -7.211825      -196.2437
  18   2.0000      -5.976847      -162.6383
  19   2.0000      -5.974141      -162.5647
  20   2.0000      -5.958434      -162.1372
  21   2.0000      -1.063368       -28.9357
  22   2.0000      -1.012879       -27.5618
  23   2.0000      -0.866819       -23.5874
  24   2.0000      -0.807919       -21.9846
  25   2.0000      -0.790663       -21.5150
  26   2.0000      -0.731818       -19.9138
  27   2.0000      -0.659641       -17.9497
  28   2.0000      -0.654804       -17.8181
  29   2.0000      -0.594090       -16.1660
  30   2.0000      -0.521672       -14.1954
  31   2.0000      -0.501285       -13.6407
  32   2.0000      -0.463678       -12.6173
  33   2.0000      -0.454804       -12.3759
  34   2.0000      -0.449858       -12.2413
  35   2.0000      -0.432905       -11.7799
  36   2.0000      -0.416614       -11.3366
  37   2.0000      -0.407840       -11.0979
  38   2.0000      -0.396075       -10.7778
  39   2.0000      -0.380857       -10.3636
  40   2.0000      -0.362702        -9.8696
  41   2.0000      -0.359795        -9.7905
  42   2.0000      -0.335467        -9.1285
  43   2.0000      -0.317466        -8.6387
  44   2.0000      -0.314102        -8.5472
  45   2.0000      -0.305500        -8.3131
  46   2.0000      -0.281145        -7.6504
  47   2.0000      -0.240945        -6.5564
  48   2.0000      -0.227170        -6.1816
  49   0.0000      -0.071929        -1.9573
  50   0.0000      -0.054648        -1.4871
  51   0.0000       0.002434         0.0662
  52   0.0000       0.038000         1.0340
  53   0.0000       0.069604         1.8940

MULLIKEN ATOMIC CHARGES
-----------------------
   0 C :    0.067187
   1 C :    0.042404
   2 C :   -0.209062
   3 C :    0.294455
   4 O :   -0.316032
   5 Cl:   -0.138621
   6 S :    0.232180
   7 O :   -0.220332
   8 Cl:   -0.191883
   9 H :    0.034629
  10 H :    0.035723
  11 H :    0.024075
  12 H :    0.172489
  13 H :   -0.014677
  14 H :   -0.001153
  15 H :    0.021311
  16 H :    0.167307
Sum of atomic charges:    0.0000000

LOEWDIN ATOMIC CHARGES
----------------------
   0 C :   -0.059970
   1 C :    0.049567
   2 C :   -0.147246
   3 C :    0.077786
   4 O :   -0.130380
   5 Cl:   -0.101117
   6 S :    0.188821
   7 O :   -0.051584
   8 Cl:   -0.151450
   9 H :    0.037222
  10 H :    0.038223
  11 H :    0.040519
  12 H :    0.076116
  13 H :    0.022502
  14 H :    0.014089
  15 H :    0.025429
  16 H :    0.071471

  Mayer bond orders larger than 0.100000
B(  0-C ,  1-C ) :   1.0782 B(  0-C ,  9-H ) :   0.9453 B(  0-C , 10-H ) :   0.9410
B(  0-C , 11-H ) :   0.9496 B(  1-C ,  2-C ) :   1.8313 B(  1-C ,  7-O ) :   1.1409
B(  2-C ,  3-C ) :   1.0495 B(  2-C , 13-H ) :   0.9469 B(  3-C ,  4-O ) :   0.9732
B(  3-C , 14-H ) :   0.9322 B(  3-C , 15-H ) :   0.9436 B(  4-O ,  6-S ) :   0.1112
B(  4-O , 16-H ) :   0.9669 B(  5-Cl,  6-S ) :   1.0074 B(  6-S ,  8-Cl) :   0.9159
B(  7-O , 12-H ) :   0.9433

Dispersion correction           -0.032022792
FINAL SINGLE POINT ENERGY     -1625.293129370446
Dispersion correction             ... done (  0.0 sec)

DIPOLE MOMENT
-------------

Method             : SCF
Type of density    : Electron Density
Multiplicity       :   1
Irrep              :   0
Energy             : -1625.2611065786932159 Eh
Basis              : AO
                                X                 Y                 Z
Electronic contribution:     20.570752348       4.859156024       3.357164053
Nuclear contribution   :    -22.128737445      -4.880243820      -2.950856865
                        -----------------------------------------
Total Dipole Moment    :     -1.557985098      -0.021087796       0.406307188
                        -----------------------------------------
Magnitude (a.u.)       :      1.610232216
Magnitude (Debye)      :      4.092885027

Rotational constants in cm-1:             0.038236             0.021974             0.015420
Rotational constants in MHz :          1146.295237           658.767033           462.271931

                             ****ORCA TERMINATED NORMALLY****
TOTAL RUN TIME: 0 days 0 hours 0 minutes 26 seconds 665 msec
