                         Program Version 6.1.0  -  RELEASE   -
|  1> ! B3LYP def2-SVP d3 EnGrad
|  2> %pal nprocs 6 end
|  3> *xyz 0 1
|  4> N   1.2880935644078 -0.92760564276794 0.38965581905439
|  5> B   1.64161985470776 0.65106723669525 0.12002427450281
|  6> B   -2.20659382058131 -0.41177996081705 -0.25433739418784
|  7> N   -1.67998235440444 0.85290036232651 -0.43568881196907
|  8> H   1.59437323068629 -1.22183437539272 1.32001463645564
|  9> H   1.75225974643884 -1.53292796885246 -0.29160154032896
| 10> H   -1.45608186544459 -1.36836845635553 -0.19328792291508
| 11> H   2.85843390358832 0.74438939576514 0.16568810347517
| 12> H   1.19577443415713 0.89433463858479 -0.99785939988329
| 13> H   1.07495473970906 1.27503776416626 1.00630726995521
| 14> H   0.27850464583647 -1.10923858044796 0.32143782853701
| 15> H   -3.39687838173517 -0.58302768239262 -0.15240915206367
| 16> H   -2.26201767678851 1.68242466085112 -0.4821783836311
| 17> H   -0.68246002057764 1.05462860863722 -0.51576532700121
| 18> *
| 19>
| 20>                          ****END OF INPUT****

CARTESIAN COORDINATES (ANGSTROEM)
---------------------------------
  N      1.288094   -0.927606    0.389656
  B      1.641620    0.651067    0.120024
  B     -2.206594   -0.411780   -0.254337
  N     -1.679982    0.852900   -0.435689
  H      1.594373   -1.221834    1.320015
  H      1.752260   -1.532928   -0.291602
  H     -1.456082   -1.368368   -0.193288
  H      2.858434    0.744389    0.165688
  H      1.195774    0.894335   -0.997859
  H      1.074955    1.275038    1.006307
  H      0.278505   -1.109239    0.321438
  H     -3.396878   -0.583028   -0.152409
  H     -2.262018    1.682425   -0.482178
  H     -0.682460    1.054629   -0.515765

 Total Charge           Charge          ....    0
 Multiplicity           Mult            ....    1
 Number of Electrons    NEL             ....   34
 Basis Dimension        Dim             ....  106

ORBITAL ENERGIES
----------------

  NO   OCC          E(Eh)            E(eV)
   0   2.0000     -14.404919      -391.9778
   1   2.0000     -14.326340      -389.8395
   2   2.0000      -6.749508      -183.6634
   3   2.0000      -6.696553      -182.2225
   4   2.0000      -0.935080       -25.4448
   5   2.0000      -0.852301       -23.1923
   6   2.0000      -0.550098       -14.9689
   7   2.0000      -0.546349       -14.8669
   8   2.0000      -0.523971       -14.2580
   9   2.0000      -0.513629       -13.9765
  10   2.0000      -0.497611       -13.5407
  11   2.0000      -0.398365       -10.8401
  12   2.0000      -0.357778        -9.7356
  13   2.0000      -0.324694        -8.8354
  14   2.0000      -0.301980        -8.2173
  15   2.0000      -0.278933        -7.5902
  16   2.0000      -0.275755        -7.5037
  17   0.0000       0.004920         0.1339
  18   0.0000       0.018363         0.4997
  19   0.0000       0.072085         1.9615
  20   0.0000       0.085055         2.3145
  21   0.0000       0.103586         2.8187

MULLIKEN ATOMIC CHARGES
-----------------------
   0 N :    0.035139
   1 B :   -0.159786
   2 B :   -0.068777
   3 N :   -0.036351
   4 H :    0.146561
   5 H :    0.145817
   6 H :   -0.081450
   7 H :   -0.065847
   8 H :   -0.115983
   9 H :   -0.100614
  10 H :    0.108144
  11 H :   -0.039577
  12 H :    0.123348
  13 H :    0.109375
Sum of atomic charges:    0.0000000

LOEWDIN ATOMIC CHARGES
----------------------
   0 N :    0.226614
   1 B :   -0.372558
   2 B :   -0.141406
   3 N :    0.076631
   4 H :    0.107810
   5 H :    0.107566
   6 H :   -0.060428
   7 H :   -0.053665
   8 H :   -0.061134
   9 H :   -0.057397
  10 H :    0.097012
  11 H :   -0.044020
  12 H :    0.087152
  13 H :    0.087823

  Mayer bond orders larger than 0.100000
B(  0-N ,  1-B ) :   0.7925 B(  0-N ,  4-H ) :   0.9642 B(  0-N ,  5-H ) :   0.9667
B(  0-N , 10-H ) :   0.9428 B(  1-B ,  7-H ) :   0.9724 B(  1-B ,  8-H ) :   0.9208
B(  1-B ,  9-H ) :   0.9711 B(  2-B ,  3-N ) :   1.6769 B(  2-B ,  6-H ) :   0.9047
B(  2-B , 11-H ) :   0.9632 B(  3-N , 12-H ) :   0.9516 B(  3-N , 13-H ) :   0.9304

Dispersion correction           -0.013290059
FINAL SINGLE POINT ENERGY      -165.039627102632
Dispersion correction             ... done (  0.0 sec)

DIPOLE MOMENT
-------------

Method             : SCF
Type of density    : Electron Density
Multiplicity       :   1
Irrep              :   0
Energy             :  -165.0263370436430534 Eh
Basis              : AO
                                X                 Y                 Z
Electronic contribution:     -2.856560266      -0.696599227      -0.268524163
Nuclear contribution   :      2.725832313      -0.517103522       0.523204930
                        -----------------------------------------
Total Dipole Moment    :     -0.130727953      -1.213702749       0.254680767
                        -----------------------------------------
Magnitude (a.u.)       :      1.247006998
Magnitude (Debye)      :      3.169639894

Rotational constants in cm-1:             0.367198             0.088974             0.073924
Rotational constants in MHz :         11008.308297          2667.373921          2216.200444

                             ****ORCA TERMINATED NORMALLY****
TOTAL RUN TIME: 0 days 0 hours 0 minutes 12 seconds 177 msec
