                         Program Version 6.1.0  -  RELEASE   -
|  1> ! B3LYP def2-SVP d3 EnGrad
|  2> %pal nprocs 6 end
|  3> *xyz 0 1
|  4> C   0.14774221262439 -1.20733547206376 0.69602368422134
|  5> H   0.81316112684843 -1.89885180676231 1.22063635702409
|  6> C   -0.4126004590396 -0.1235438955834 1.40248478765627
|  7> H   -1.39240431974006 0.27888412058967 1.12519542162265
|  8> H   -0.15489285810358 0.02202507533757 2.45653971989882
|  9> C   0.14811437566385 -1.20695029509631 -0.69630564809941
| 10> C   -0.41177613062037 -0.1226769685264 -1.40245843126988
| 11> H   -1.39179973961067 0.27951873633976 -1.12558509357877
| 12> H   0.81381576822371 -1.89816802314122 -1.22095013782144
| 13> H   -0.15349127684761 0.02341853487299 -2.45630025691646
| 14> S   0.43080958294241 1.51404248746025 0.00029337457912
| 15> O   -0.33304133401147 2.76933856122858 -0.00021709497897
| 16> O   1.89636305167055 1.57029894534457 0.00064331766263
| 17> *
| 18>
| 19>                          ****END OF INPUT****

CARTESIAN COORDINATES (ANGSTROEM)
---------------------------------
  C      0.147742   -1.207335    0.696024
  H      0.813161   -1.898852    1.220636
  C     -0.412600   -0.123544    1.402485
  H     -1.392404    0.278884    1.125195
  H     -0.154893    0.022025    2.456540
  C      0.148114   -1.206950   -0.696306
  C     -0.411776   -0.122677   -1.402458
  H     -1.391800    0.279519   -1.125585
  H      0.813816   -1.898168   -1.220950
  H     -0.153491    0.023419   -2.456300
  S      0.430810    1.514042    0.000293
  O     -0.333041    2.769339   -0.000217
  O      1.896363    1.570299    0.000643

 Total Charge           Charge          ....    0
 Multiplicity           Mult            ....    1
 Number of Electrons    NEL             ....   62
 Basis Dimension        Dim             ....  132

ORBITAL ENERGIES
----------------

  NO   OCC          E(Eh)            E(eV)
   0   2.0000     -89.019522     -2422.3443
   1   2.0000     -19.139491      -520.8120
   2   2.0000     -19.137511      -520.7582
   3   2.0000     -10.234851      -278.5045
   4   2.0000     -10.234819      -278.5036
   5   2.0000     -10.218344      -278.0553
   6   2.0000     -10.217938      -278.0442
   7   2.0000      -8.092070      -220.1964
   8   2.0000      -6.060290      -164.9089
   9   2.0000      -6.059424      -164.8853
  10   2.0000      -6.055752      -164.7854
  11   2.0000      -1.088526       -29.6203
  12   2.0000      -0.990344       -26.9486
  13   2.0000      -0.840874       -22.8813
  14   2.0000      -0.741846       -20.1867
  15   2.0000      -0.670943       -18.2573
  16   2.0000      -0.597147       -16.2492
  17   2.0000      -0.554981       -15.1018
  18   2.0000      -0.521964       -14.2034
  19   2.0000      -0.476420       -12.9641
  20   2.0000      -0.461222       -12.5505
  21   2.0000      -0.457278       -12.4432
  22   2.0000      -0.441829       -12.0228
  23   2.0000      -0.437371       -11.9015
  24   2.0000      -0.400434       -10.8964
  25   2.0000      -0.394482       -10.7344
  26   2.0000      -0.343905        -9.3581
  27   2.0000      -0.325991        -8.8707
  28   2.0000      -0.310443        -8.4476
  29   2.0000      -0.269608        -7.3364
  30   2.0000      -0.268471        -7.3055
  31   0.0000      -0.071227        -1.9382
  32   0.0000      -0.055969        -1.5230
  33   0.0000       0.042755         1.1634
  34   0.0000       0.050731         1.3805
  35   0.0000       0.055966         1.5229

MULLIKEN ATOMIC CHARGES
-----------------------
   0 C :   -0.011540
   1 H :    0.020174
   2 C :   -0.077377
   3 H :    0.066226
   4 H :    0.061062
   5 C :   -0.011489
   6 C :   -0.077410
   7 H :    0.066228
   8 H :    0.020176
   9 H :    0.061076
  10 S :    0.726100
  11 O :   -0.422037
  12 O :   -0.421189
Sum of atomic charges:   -0.0000000

LOEWDIN ATOMIC CHARGES
----------------------
   0 C :   -0.046639
   1 H :    0.036565
   2 C :   -0.085737
   3 H :    0.028837
   4 H :    0.035846
   5 C :   -0.046605
   6 C :   -0.085810
   7 H :    0.028844
   8 H :    0.036563
   9 H :    0.035848
  10 S :    1.000845
  11 O :   -0.471164
  12 O :   -0.467395

  Mayer bond orders larger than 0.100000
B(  0-C ,  1-H ) :   0.9675 B(  0-C ,  2-C ) :   1.3863 B(  0-C ,  5-C ) :   1.5109
B(  2-C ,  3-H ) :   0.9290 B(  2-C ,  4-H ) :   0.9539 B(  2-C ,  6-C ) :   0.1201
B(  2-C , 10-S ) :   0.3865 B(  5-C ,  6-C ) :   1.3861 B(  5-C ,  8-H ) :   0.9675
B(  6-C ,  7-H ) :   0.9290 B(  6-C ,  9-H ) :   0.9538 B(  6-C , 10-S ) :   0.3868
B( 10-S , 11-O ) :   1.6826 B( 10-S , 12-O ) :   1.6833 B( 11-O , 12-O ) :   0.1405

Dispersion correction           -0.023192588
FINAL SINGLE POINT ENERGY      -703.999124813254
Dispersion correction             ... done (  0.0 sec)

DIPOLE MOMENT
-------------

Method             : SCF
Type of density    : Electron Density
Multiplicity       :   1
Irrep              :   0
Energy             :  -703.9759322249719844 Eh
Basis              : AO
                                X                 Y                 Z
Electronic contribution:      2.235760382       5.539099137       0.000933379
Nuclear contribution   :     -2.841363547      -6.920527613      -0.001042008
                        -----------------------------------------
Total Dipole Moment    :     -0.605603165      -1.381428476      -0.000108629
                        -----------------------------------------
Magnitude (a.u.)       :      1.508343409
Magnitude (Debye)      :      3.833904261

Rotational constants in cm-1:             0.120727             0.058648             0.055999
Rotational constants in MHz :          3619.299932          1758.213570          1678.819080

                             ****ORCA TERMINATED NORMALLY****
TOTAL RUN TIME: 0 days 0 hours 0 minutes 19 seconds 34 msec
