                         Program Version 6.1.0  -  RELEASE   -
|  1> ! B3LYP def2-SVP d3 EnGrad
|  2> %pal nprocs 6 end
|  3> *xyz 0 1
|  4> C   1.6652085249664 0.47918795013482 -0.71280696831467
|  5> C   0.44936725657113 0.866474352715 0.09337060191837
|  6> H   2.6168595301472 0.85752994691115 -0.3235666701593
|  7> H   1.69860616413406 -0.54191814094151 -1.1069181477332
|  8> H   1.07907590801357 0.40828127600419 0.92599526022566
|  9> C   -0.75135934825212 0.12147325864247 0.20467566977566
| 10> O   -1.94370252443238 0.7089129888136 0.47803835179908
| 11> C   -0.82118937845564 -1.33802262685811 -0.03701770768036
| 12> H   0.13341299161429 -1.82036330558799 0.23764194687226
| 13> H   -0.98201885093836 -1.56794688282765 -1.11065350956753
| 14> H   -1.65159938121488 -1.78934784646663 0.52838685769526
| 15> H   -1.82357740694317 1.66691632339723 0.54564741269826
| 16> H   0.33091651478993 1.94882270606344 0.2772069024705
| 17> *
| 18>
| 19>                          ****END OF INPUT****

CARTESIAN COORDINATES (ANGSTROEM)
---------------------------------
  C      1.665209    0.479188   -0.712807
  C      0.449367    0.866474    0.093371
  H      2.616860    0.857530   -0.323567
  H      1.698606   -0.541918   -1.106918
  H      1.079076    0.408281    0.925995
  C     -0.751359    0.121473    0.204676
  O     -1.943703    0.708913    0.478038
  C     -0.821189   -1.338023   -0.037018
  H      0.133413   -1.820363    0.237642
  H     -0.982019   -1.567947   -1.110654
  H     -1.651599   -1.789348    0.528387
  H     -1.823577    1.666916    0.545647
  H      0.330917    1.948823    0.277207

 Total Charge           Charge          ....    0
 Multiplicity           Mult            ....    1
 Number of Electrons    NEL             ....   40
 Basis Dimension        Dim             ....  110

ORBITAL ENERGIES
----------------

  NO   OCC          E(Eh)            E(eV)
   0   2.0000     -19.173166      -521.7284
   1   2.0000     -10.245818      -278.8029
   2   2.0000     -10.206745      -277.7397
   3   2.0000     -10.191343      -277.3205
   4   2.0000     -10.155898      -276.3560
   5   2.0000      -1.056247       -28.7419
   6   2.0000      -0.800289       -21.7770
   7   2.0000      -0.726023       -19.7561
   8   2.0000      -0.624277       -16.9874
   9   2.0000      -0.584539       -15.9061
  10   2.0000      -0.502773       -13.6812
  11   2.0000      -0.469255       -12.7691
  12   2.0000      -0.439813       -11.9679
  13   2.0000      -0.405880       -11.0446
  14   2.0000      -0.394539       -10.7360
  15   2.0000      -0.389502       -10.5989
  16   2.0000      -0.372183       -10.1276
  17   2.0000      -0.357065        -9.7162
  18   2.0000      -0.336177        -9.1478
  19   2.0000      -0.136540        -3.7155
  20   0.0000      -0.036143        -0.9835
  21   0.0000       0.036650         0.9973
  22   0.0000       0.068061         1.8520
  23   0.0000       0.097123         2.6428
  24   0.0000       0.100536         2.7357

MULLIKEN ATOMIC CHARGES
-----------------------
   0 C :   -0.218446
   1 C :    0.078233
   2 H :    0.007269
   3 H :    0.008364
   4 H :    0.097406
   5 C :   -0.114851
   6 O :   -0.178981
   7 C :    0.073421
   8 H :    0.015705
   9 H :    0.035341
  10 H :    0.023518
  11 H :    0.173886
  12 H :   -0.000866
Sum of atomic charges:    0.0000000

LOEWDIN ATOMIC CHARGES
----------------------
   0 C :   -0.230996
   1 C :   -0.061192
   2 H :    0.004906
   3 H :    0.005756
   4 H :    0.138319
   5 C :    0.007012
   6 O :   -0.037357
   7 C :   -0.055038
   8 H :    0.032824
   9 H :    0.038347
  10 H :    0.034871
  11 H :    0.091373
  12 H :    0.031174

  Mayer bond orders larger than 0.100000
B(  0-C ,  1-C ) :   1.0138 B(  0-C ,  2-H ) :   0.9616 B(  0-C ,  3-H ) :   0.9576
B(  0-C ,  4-H ) :   0.1941 B(  0-C ,  5-C ) :   0.4269 B(  1-C ,  4-H ) :   0.7335
B(  1-C ,  5-C ) :   1.2606 B(  1-C , 12-H ) :   0.9232 B(  5-C ,  6-O ) :   1.1910
B(  5-C ,  7-C ) :   1.1221 B(  6-O , 11-H ) :   0.9600 B(  7-C ,  8-H ) :   0.9445
B(  7-C ,  9-H ) :   0.9263 B(  7-C , 10-H ) :   0.9431

Dispersion correction           -0.015109894
FINAL SINGLE POINT ENERGY      -232.015808274010
Dispersion correction             ... done (  0.1 sec)

DIPOLE MOMENT
-------------

Method             : SCF
Type of density    : Electron Density
Multiplicity       :   1
Irrep              :   0
Energy             :  -232.0006983804457263 Eh
Basis              : AO
                                X                 Y                 Z
Electronic contribution:     -4.063958309       2.244050619       0.889439101
Nuclear contribution   :      3.703153873      -2.032238937      -0.246525120
                        -----------------------------------------
Total Dipole Moment    :     -0.360804436       0.211811682       0.642913980
                        -----------------------------------------
Magnitude (a.u.)       :      0.767060895
Magnitude (Debye)      :      1.949713848

Rotational constants in cm-1:             0.277283             0.123711             0.089566
Rotational constants in MHz :          8312.731367          3708.753179          2685.121021

                             ****ORCA TERMINATED NORMALLY****
TOTAL RUN TIME: 0 days 0 hours 0 minutes 15 seconds 991 msec
