                         Program Version 6.1.0  -  RELEASE   -
|  1> ! B3LYP def2-SVP d3 EnGrad
|  2> %pal nprocs 6 end
|  3> *xyz 0 1
|  4> H   -0.17797975708008 -0.46121713183949 -0.05626886324456
|  5> C   0.2655066438965 0.40895855703154 0.4386643597821
|  6> H   1.34015750469409 0.36129709726622 0.64276738218657
|  7> C   -0.46530826668476 1.47192932536529 0.77811264733459
|  8> H   -1.11799614139171 -0.80857614556098 3.84770888954602
|  9> H   -0.89847432992083 -0.45219114873899 3.21091454374238
| 10> H   -0.02082460038026 2.34073097384407 1.27466700924211
| 11> H   -1.54029105313295 1.52014347263232 0.57622603141078
| 12> *
| 13>
| 14>                          ****END OF INPUT****

CARTESIAN COORDINATES (ANGSTROEM)
---------------------------------
  H     -0.177980   -0.461217   -0.056269
  C      0.265507    0.408959    0.438664
  H      1.340158    0.361297    0.642767
  C     -0.465308    1.471929    0.778113
  H     -1.117996   -0.808576    3.847709
  H     -0.898474   -0.452191    3.210915
  H     -0.020825    2.340731    1.274667
  H     -1.540291    1.520143    0.576226

 Total Charge           Charge          ....    0
 Multiplicity           Mult            ....    1
 Number of Electrons    NEL             ....   18
 Basis Dimension        Dim             ....   58

ORBITAL ENERGIES
----------------

  NO   OCC          E(Eh)            E(eV)
   0   2.0000     -10.190162      -277.2884
   1   2.0000     -10.189446      -277.2689
   2   2.0000      -0.750947       -20.4343
   3   2.0000      -0.571367       -15.5477
   4   2.0000      -0.466020       -12.6811
   5   2.0000      -0.420701       -11.4479
   6   2.0000      -0.413594       -11.2545
   7   2.0000      -0.354121        -9.6361
   8   2.0000      -0.275319        -7.4918
   9   0.0000       0.005499         0.1496
  10   0.0000       0.074186         2.0187
  11   0.0000       0.095726         2.6048
  12   0.0000       0.103279         2.8104
  13   0.0000       0.115058         3.1309

MULLIKEN ATOMIC CHARGES
-----------------------
   0 H :    0.030829
   1 C :   -0.054708
   2 H :    0.030388
   3 C :   -0.054774
   4 H :   -0.021798
   5 H :    0.008858
   6 H :    0.030417
   7 H :    0.030789
Sum of atomic charges:   -0.0000000

LOEWDIN ATOMIC CHARGES
----------------------
   0 H :    0.025337
   1 C :   -0.046287
   2 H :    0.025270
   3 C :   -0.046271
   4 H :   -0.010762
   5 H :    0.002107
   6 H :    0.025290
   7 H :    0.025315

  Mayer bond orders larger than 0.100000
B(  0-H ,  1-C ) :   0.9625 B(  1-C ,  2-H ) :   0.9624 B(  1-C ,  3-C ) :   2.0662
B(  3-C ,  6-H ) :   0.9625 B(  3-C ,  7-H ) :   0.9625 B(  4-H ,  5-H ) :   0.9915

Dispersion correction           -0.004857755
FINAL SINGLE POINT ENERGY       -79.645978826771
Dispersion correction             ... done (  0.0 sec)

DIPOLE MOMENT
-------------

Method             : SCF
Type of density    : Electron Density
Multiplicity       :   1
Irrep              :   0
Energy             :   -79.6411210717565439 Eh
Basis              : AO
                                X                 Y                 Z
Electronic contribution:      1.382962684       2.392729453      -4.450626911
Nuclear contribution   :     -1.361058930      -2.355224383       4.381225220
                        -----------------------------------------
Total Dipole Moment    :      0.021903754       0.037505070      -0.069401691
                        -----------------------------------------
Magnitude (a.u.)       :      0.081871847
Magnitude (Debye)      :      0.208101697

Rotational constants in cm-1:             0.827679             0.647644             0.426981
Rotational constants in MHz :         24813.190484         19415.865481         12800.564145

                             ****ORCA TERMINATED NORMALLY****
TOTAL RUN TIME: 0 days 0 hours 0 minutes 5 seconds 917 msec
