                         Program Version 6.1.0  -  RELEASE   -
|  1> ! B3LYP def2-SVP d3 EnGrad
|  2> %pal nprocs 6 end
|  3> *xyz 0 1
|  4> N   -1.40580158245599 -0.68092273746646 -0.03675328834756
|  5> B   -2.36839348684724 0.3209268346999 -0.1394853116925
|  6> N   1.56434309412178 0.51870464172537 0.45290318108387
|  7> B   2.19224750392152 -0.36857216211869 -0.4087755769584
|  8> H   -0.75866811363874 -0.91751532980918 -0.78322967312161
|  9> H   -2.41399503628832 0.98759235461211 -1.14493777236132
| 10> H   -3.12366468364136 0.50749312026914 0.78453733207667
| 11> H   -1.32947348933458 -1.30152631718252 0.7625601511537
| 12> H   0.556229696975 0.53556707802843 0.58098984813486
| 13> H   2.0636456207979 1.21183242648255 0.99914883062126
| 14> H   3.39325431942168 -0.34644838678774 -0.53133437862541
| 15> H   1.51749515696834 -1.1618035224529 -1.02901434196356
| 16> *
| 17>
| 18>                          ****END OF INPUT****

CARTESIAN COORDINATES (ANGSTROEM)
---------------------------------
  N     -1.405802   -0.680923   -0.036753
  B     -2.368393    0.320927   -0.139485
  N      1.564343    0.518705    0.452903
  B      2.192248   -0.368572   -0.408776
  H     -0.758668   -0.917515   -0.783230
  H     -2.413995    0.987592   -1.144938
  H     -3.123665    0.507493    0.784537
  H     -1.329473   -1.301526    0.762560
  H      0.556230    0.535567    0.580990
  H      2.063646    1.211832    0.999149
  H      3.393254   -0.346448   -0.531334
  H      1.517495   -1.161804   -1.029014

 Total Charge           Charge          ....    0
 Multiplicity           Mult            ....    1
 Number of Electrons    NEL             ....   32
 Basis Dimension        Dim             ....   96

ORBITAL ENERGIES
----------------

  NO   OCC          E(Eh)            E(eV)
   0   2.0000     -14.338989      -390.1837
   1   2.0000     -14.329630      -389.9291
   2   2.0000      -6.750119      -183.6801
   3   2.0000      -6.745058      -183.5423
   4   2.0000      -0.865067       -23.5397
   5   2.0000      -0.853891       -23.2356
   6   2.0000      -0.528464       -14.3802
   7   2.0000      -0.520701       -14.1690
   8   2.0000      -0.515876       -14.0377
   9   2.0000      -0.507739       -13.8163
  10   2.0000      -0.394064       -10.7230
  11   2.0000      -0.389427       -10.5968
  12   2.0000      -0.321643        -8.7523
  13   2.0000      -0.316567        -8.6142
  14   2.0000      -0.309683        -8.4269
  15   2.0000      -0.301871        -8.2143
  16   0.0000       0.002886         0.0785
  17   0.0000       0.010657         0.2900
  18   0.0000       0.045860         1.2479
  19   0.0000       0.074456         2.0261
  20   0.0000       0.101561         2.7636

MULLIKEN ATOMIC CHARGES
-----------------------
   0 N :   -0.080372
   1 B :   -0.056469
   2 N :   -0.061190
   3 B :   -0.080633
   4 H :    0.135287
   5 H :   -0.043338
   6 H :   -0.045856
   7 H :    0.123934
   8 H :    0.101089
   9 H :    0.120409
  10 H :   -0.043700
  11 H :   -0.069161
Sum of atomic charges:    0.0000000

LOEWDIN ATOMIC CHARGES
----------------------
   0 N :    0.062058
   1 B :   -0.118793
   2 N :    0.060903
   3 B :   -0.137714
   4 H :    0.086468
   5 H :   -0.043266
   6 H :   -0.045143
   7 H :    0.083319
   8 H :    0.069477
   9 H :    0.082846
  10 H :   -0.044700
  11 H :   -0.055455

  Mayer bond orders larger than 0.100000
B(  0-N ,  1-B ) :   1.5584 B(  0-N ,  4-H ) :   0.9440 B(  0-N ,  7-H ) :   0.9578
B(  1-B ,  5-H ) :   0.9712 B(  1-B ,  6-H ) :   0.9701 B(  2-N ,  3-B ) :   1.6305
B(  2-N ,  8-H ) :   0.9350 B(  2-N ,  9-H ) :   0.9576 B(  3-B , 10-H ) :   0.9679
B(  3-B , 11-H ) :   0.9516

Dispersion correction           -0.010008136
FINAL SINGLE POINT ENERGY      -163.864574979795
Dispersion correction             ... done (  0.1 sec)

DIPOLE MOMENT
-------------

Method             : SCF
Type of density    : Electron Density
Multiplicity       :   1
Irrep              :   0
Energy             :  -163.8545668433831963 Eh
Basis              : AO
                                X                 Y                 Z
Electronic contribution:      0.057115667       0.001962925       0.449494284
Nuclear contribution   :      0.021785630      -0.078794903       0.125888389
                        -----------------------------------------
Total Dipole Moment    :      0.078901296      -0.076831977       0.575382673
                        -----------------------------------------
Magnitude (a.u.)       :      0.585827439
Magnitude (Debye)      :      1.489055012

Rotational constants in cm-1:             0.558286             0.077113             0.071914
Rotational constants in MHz :         16736.980597          2311.803908          2155.923227

                             ****ORCA TERMINATED NORMALLY****
TOTAL RUN TIME: 0 days 0 hours 0 minutes 9 seconds 157 msec
