                         Program Version 6.1.0  -  RELEASE   -
|  1> ! B3LYP def2-SVP d3 EnGrad
|  2> %pal nprocs 6 end
|  3> *xyz 0 2
|  4> C   -1.82219329405456 0.76593612629429 -1.17801255979065
|  5> C   -1.12747670496115 0.6977128829198 0.05853947973066
|  6> C   -1.68832289506769 -0.30765900762094 1.11388701139345
|  7> C   -1.8984640828845 -1.67681157202199 0.4111490860285
|  8> C   -2.86026396204658 -1.54600774408111 -0.77581708137382
|  9> C   -2.44122475958079 -0.46906288907449 -1.7813139300392
| 10> H   -2.95658817873505 -2.52008779514572 -1.28393411032631
| 11> H   -3.8639978071596 -1.30661400826742 -0.39207916847166
| 12> H   -1.72179681193252 -0.89954401072774 -2.50972315483757
| 13> H   -3.30958879816723 -0.17897649636112 -2.39935492503022
| 14> C   -1.74233421094924 1.94270299968626 -2.10762291344164
| 15> H   -1.70100165806398 2.90861736828911 -1.58298760319413
| 16> H   -0.85160052252363 1.89752857775857 -2.76832152904302
| 17> H   -2.61880585326506 1.96428031196426 -2.77656309131009
| 18> C   -0.55502397651706 -2.35182767897974 0.04437986320182
| 19> C   -0.58601796805868 2.01047980898555 0.64419220449632
| 20> C   0.4949124804055 -1.48399454243276 -0.64680259561942
| 21> H   -0.12471097603965 -2.77956107189252 0.96018941598308
| 22> C   0.64771158231549 2.66560768510375 -0.01913190518444
| 23> C   1.90067508018176 1.83072767472081 0.06496611328192
| 24> H   0.81111146681509 3.63360507814365 0.49028521614061
| 25> C   -0.73655145039591 -0.50628591612892 2.31137301645684
| 26> H   -0.74912173368788 0.35695483007277 2.99278081873451
| 27> H   -1.05470504276646 -1.38235716880662 2.8993132491131
| 28> C   -3.02255306218107 0.23216589319226 1.67013887175778
| 29> H   -2.85898175039455 1.17685679221708 2.21219134826365
| 30> H   -3.74837642978491 0.4356599183324 0.87089576917373
| 31> H   -3.47230806763048 -0.4845614147108 2.37819405124082
| 32> H   -1.40368163682959 2.7529402245954 0.63073466080354
| 33> H   -0.35330792787875 1.86519015200614 1.70672420628484
| 34> H   0.43917087253997 2.89684585857925 -1.0717111435552
| 35> C   2.40048700620738 1.26242780732404 -1.04482121395701
| 36> H   1.88007426003328 1.47183810766629 -1.98877670060813
| 37> C   3.48221675941771 0.23260700248314 -1.14391536720242
| 38> H   4.19137213482574 0.48671218774113 -1.95198341029977
| 39> H   4.07054813557195 0.17320338948027 -0.21563997461476
| 40> C   2.86142325684597 -1.1580191581499 -1.45800533941203
| 41> H   2.36428645036405 -1.09786824204801 -2.44133160553189
| 42> H   3.68723156210088 -1.88710721149782 -1.56361670299763
| 43> C   1.87982135687421 -1.64785754066254 -0.42562740315495
| 44> H   0.02664507217335 -0.19054385856518 -0.26241977583475
| 45> H   0.26495107946957 -1.29255829977675 -1.70389018404724
| 46> C   2.47406240012928 1.65058286954261 1.44647129427808
| 47> H   2.58059247741789 2.627726807778 1.94859882203582
| 48> H   1.80614321276586 1.04428369137764 2.08085303174271
| 49> H   3.45882124278306 1.16522345486713 1.44170056215452
| 50> C   2.46816207217226 -2.10018608913499 0.87891084536686
| 51> H   3.32720268424172 -2.7744821960468 0.71236758744745
| 52> H   2.85898959497065 -1.24764886285066 1.46830981828484
| 53> H   1.74892345800264 -2.62739356974923 1.52101782505782
| 54> H   -0.77601052257676 -3.21544991054626 -0.60898170935033
| 55> H   -2.38357230588846 -2.34571502468581 1.14401518732699
| 56> H   0.30304669139657 -0.67023622115579 2.00020574244804
| 57> *
| 58>
| 59>                          ****END OF INPUT****

CARTESIAN COORDINATES (ANGSTROEM)
---------------------------------
  C     -1.822193    0.765936   -1.178013
  C     -1.127477    0.697713    0.058539
  C     -1.688323   -0.307659    1.113887
  C     -1.898464   -1.676812    0.411149
  C     -2.860264   -1.546008   -0.775817
  C     -2.441225   -0.469063   -1.781314
  H     -2.956588   -2.520088   -1.283934
  H     -3.863998   -1.306614   -0.392079
  H     -1.721797   -0.899544   -2.509723
  H     -3.309589   -0.178976   -2.399355
  C     -1.742334    1.942703   -2.107623
  H     -1.701002    2.908617   -1.582988
  H     -0.851601    1.897529   -2.768322
  H     -2.618806    1.964280   -2.776563
  C     -0.555024   -2.351828    0.044380
  C     -0.586018    2.010480    0.644192
  C      0.494912   -1.483995   -0.646803
  H     -0.124711   -2.779561    0.960189
  C      0.647712    2.665608   -0.019132
  C      1.900675    1.830728    0.064966
  H      0.811111    3.633605    0.490285
  C     -0.736551   -0.506286    2.311373
  H     -0.749122    0.356955    2.992781
  H     -1.054705   -1.382357    2.899313
  C     -3.022553    0.232166    1.670139
  H     -2.858982    1.176857    2.212191
  H     -3.748376    0.435660    0.870896
  H     -3.472308   -0.484561    2.378194
  H     -1.403682    2.752940    0.630735
  H     -0.353308    1.865190    1.706724
  H      0.439171    2.896846   -1.071711
  C      2.400487    1.262428   -1.044821
  H      1.880074    1.471838   -1.988777
  C      3.482217    0.232607   -1.143915
  H      4.191372    0.486712   -1.951983
  H      4.070548    0.173203   -0.215640
  C      2.861423   -1.158019   -1.458005
  H      2.364286   -1.097868   -2.441332
  H      3.687232   -1.887107   -1.563617
  C      1.879821   -1.647858   -0.425627
  H      0.026645   -0.190544   -0.262420
  H      0.264951   -1.292558   -1.703890
  C      2.474062    1.650583    1.446471
  H      2.580592    2.627727    1.948599
  H      1.806143    1.044284    2.080853
  H      3.458821    1.165223    1.441701
  C      2.468162   -2.100186    0.878911
  H      3.327203   -2.774482    0.712368
  H      2.858990   -1.247649    1.468310
  H      1.748923   -2.627394    1.521018
  H     -0.776011   -3.215450   -0.608982
  H     -2.383572   -2.345715    1.144015
  H      0.303047   -0.670236    2.000206

 Total Charge           Charge          ....    0
 Multiplicity           Mult            ....    2
 Number of Electrons    NEL             ....  153
 Basis Dimension        Dim             ....  445

ORBITAL ENERGIES
----------------
                 SPIN UP ORBITALS
  NO   OCC          E(Eh)            E(eV)
   0   1.0000     -10.189147      -277.2608
   1   1.0000     -10.180548      -277.0268
   2   1.0000     -10.178333      -276.9665
   3   1.0000     -10.176931      -276.9284
   4   1.0000     -10.176838      -276.9258
   5   1.0000     -10.176499      -276.9166
   6   1.0000     -10.176346      -276.9125
   7   1.0000     -10.175925      -276.9010
   8   1.0000     -10.175771      -276.8968
   9   1.0000     -10.175056      -276.8774
  10   1.0000     -10.174634      -276.8659
  11   1.0000     -10.174238      -276.8551
  12   1.0000     -10.174190      -276.8538
  13   1.0000     -10.174008      -276.8488
  14   1.0000     -10.173575      -276.8370
  15   1.0000     -10.173288      -276.8292
  16   1.0000     -10.171109      -276.7700
  17   1.0000     -10.168775      -276.7064
  18   1.0000     -10.167717      -276.6776
  19   1.0000     -10.166100      -276.6337
  20   1.0000      -0.844571       -22.9819
  21   1.0000      -0.811713       -22.0878
  22   1.0000      -0.798421       -21.7261
  23   1.0000      -0.773915       -21.0593
  24   1.0000      -0.758481       -20.6393
  25   1.0000      -0.748224       -20.3602
  26   1.0000      -0.708989       -19.2926
  27   1.0000      -0.707662       -19.2565
  28   1.0000      -0.674539       -18.3551
  29   1.0000      -0.668241       -18.1838
  30   1.0000      -0.665006       -18.0957
  31   1.0000      -0.663827       -18.0636
  32   1.0000      -0.628234       -17.0951
  33   1.0000      -0.613206       -16.6862
  34   1.0000      -0.577346       -15.7104
  35   1.0000      -0.561735       -15.2856
  36   1.0000      -0.544296       -14.8110
  37   1.0000      -0.511875       -13.9288
  38   1.0000      -0.504479       -13.7276
  39   1.0000      -0.482773       -13.1369
  40   1.0000      -0.472526       -12.8581
  41   1.0000      -0.469914       -12.7870
  42   1.0000      -0.463745       -12.6191
  43   1.0000      -0.445155       -12.1133
  44   1.0000      -0.442949       -12.0533
  45   1.0000      -0.437704       -11.9105
  46   1.0000      -0.429553       -11.6887
  47   1.0000      -0.427145       -11.6232
  48   1.0000      -0.417282       -11.3548
  49   1.0000      -0.405700       -11.0397
  50   1.0000      -0.403695       -10.9851
  51   1.0000      -0.397366       -10.8129
  52   1.0000      -0.395027       -10.7492
  53   1.0000      -0.392243       -10.6735
  54   1.0000      -0.388761       -10.5787
  55   1.0000      -0.383981       -10.4487
  56   1.0000      -0.376243       -10.2381
  57   1.0000      -0.369989       -10.0679
  58   1.0000      -0.367340        -9.9958
  59   1.0000      -0.364222        -9.9110
  60   1.0000      -0.361569        -9.8388
  61   1.0000      -0.353929        -9.6309
  62   1.0000      -0.352562        -9.5937
  63   1.0000      -0.346662        -9.4331
  64   1.0000      -0.341629        -9.2962
  65   1.0000      -0.341565        -9.2945
  66   1.0000      -0.334492        -9.1020
  67   1.0000      -0.326211        -8.8766
  68   1.0000      -0.317693        -8.6449
  69   1.0000      -0.309523        -8.4225
  70   1.0000      -0.307570        -8.3694
  71   1.0000      -0.302836        -8.2406
  72   1.0000      -0.292480        -7.9588
  73   1.0000      -0.282349        -7.6831
  74   1.0000      -0.227702        -6.1961
  75   1.0000      -0.217785        -5.9262
  76   1.0000      -0.134920        -3.6714
  77   0.0000      -0.009213        -0.2507
  78   0.0000       0.024194         0.6583
  79   0.0000       0.046878         1.2756
  80   0.0000       0.059819         1.6278
  81   0.0000       0.064434         1.7533

                 SPIN DOWN ORBITALS
  NO   OCC          E(Eh)            E(eV)
   0   1.0000     -10.188518      -277.2437
   1   1.0000     -10.183851      -277.1167
   2   1.0000     -10.177584      -276.9462
   3   1.0000     -10.177430      -276.9419
   4   1.0000     -10.176754      -276.9235
   5   1.0000     -10.176510      -276.9169
   6   1.0000     -10.176457      -276.9155
   7   1.0000     -10.176208      -276.9087
   8   1.0000     -10.175917      -276.9008
   9   1.0000     -10.175646      -276.8934
  10   1.0000     -10.174829      -276.8712
  11   1.0000     -10.174740      -276.8688
  12   1.0000     -10.174648      -276.8662
  13   1.0000     -10.173762      -276.8421
  14   1.0000     -10.170989      -276.7667
  15   1.0000     -10.168815      -276.7075
  16   1.0000     -10.167825      -276.6806
  17   1.0000     -10.167347      -276.6676
  18   1.0000     -10.166119      -276.6342
  19   1.0000     -10.164756      -276.5971
  20   1.0000      -0.842679       -22.9305
  21   1.0000      -0.809383       -22.0244
  22   1.0000      -0.794292       -21.6138
  23   1.0000      -0.767838       -20.8939
  24   1.0000      -0.757229       -20.6052
  25   1.0000      -0.747681       -20.3454
  26   1.0000      -0.707441       -19.2505
  27   1.0000      -0.705736       -19.2041
  28   1.0000      -0.674452       -18.3528
  29   1.0000      -0.668210       -18.1829
  30   1.0000      -0.664717       -18.0879
  31   1.0000      -0.663525       -18.0554
  32   1.0000      -0.626814       -17.0565
  33   1.0000      -0.611214       -16.6320
  34   1.0000      -0.577050       -15.7023
  35   1.0000      -0.559861       -15.2346
  36   1.0000      -0.539126       -14.6704
  37   1.0000      -0.508044       -13.8246
  38   1.0000      -0.503124       -13.6907
  39   1.0000      -0.479246       -13.0409
  40   1.0000      -0.471605       -12.8330
  41   1.0000      -0.468795       -12.7566
  42   1.0000      -0.462850       -12.5948
  43   1.0000      -0.443133       -12.0583
  44   1.0000      -0.440207       -11.9786
  45   1.0000      -0.436131       -11.8677
  46   1.0000      -0.427222       -11.6253
  47   1.0000      -0.425885       -11.5889
  48   1.0000      -0.411739       -11.2040
  49   1.0000      -0.402778       -10.9601
  50   1.0000      -0.401159       -10.9161
  51   1.0000      -0.396070       -10.7776
  52   1.0000      -0.393891       -10.7183
  53   1.0000      -0.390682       -10.6310
  54   1.0000      -0.386679       -10.5221
  55   1.0000      -0.383585       -10.4379
  56   1.0000      -0.375813       -10.2264
  57   1.0000      -0.368453       -10.0261
  58   1.0000      -0.366686        -9.9780
  59   1.0000      -0.362775        -9.8716
  60   1.0000      -0.361186        -9.8284
  61   1.0000      -0.353050        -9.6070
  62   1.0000      -0.351918        -9.5762
  63   1.0000      -0.345061        -9.3896
  64   1.0000      -0.340908        -9.2766
  65   1.0000      -0.338995        -9.2245
  66   1.0000      -0.333631        -9.0785
  67   1.0000      -0.325535        -8.8583
  68   1.0000      -0.316075        -8.6008
  69   1.0000      -0.308344        -8.3905
  70   1.0000      -0.305481        -8.3126
  71   1.0000      -0.301544        -8.2054
  72   1.0000      -0.291740        -7.9386
  73   1.0000      -0.281431        -7.6581
  74   1.0000      -0.227096        -6.1796
  75   1.0000      -0.195349        -5.3157
  76   0.0000      -0.041692        -1.1345
  77   0.0000       0.010200         0.2775
  78   0.0000       0.025149         0.6844
  79   0.0000       0.048219         1.3121
  80   0.0000       0.060962         1.6589

MULLIKEN ATOMIC CHARGES AND SPIN POPULATIONS
--------------------------------------------
   0 C :   -0.247011    0.623865
   1 C :   -0.072814   -0.229479
   2 C :   -0.260466    0.026519
   3 C :   -0.045937   -0.007418
   4 C :    0.100148    0.006293
   5 C :    0.100216   -0.054718
   6 H :   -0.022855   -0.000904
   7 H :   -0.012313   -0.000051
   8 H :   -0.002352    0.038944
   9 H :   -0.015074    0.012951
  10 C :    0.095146   -0.056736
  11 H :    0.012667    0.008414
  12 H :    0.016036    0.041467
  13 H :   -0.005593    0.009321
  14 C :    0.136317    0.020179
  15 C :    0.077169    0.013439
  16 C :   -0.015799   -0.206126
  17 H :   -0.016024   -0.001164
  18 C :    0.129826   -0.003639
  19 C :   -0.150582    0.001329
  20 H :   -0.017000   -0.000214
  21 C :    0.100117   -0.001986
  22 H :    0.005151    0.000194
  23 H :   -0.008565    0.000331
  24 C :    0.115897    0.002234
  25 H :   -0.006512    0.000349
  26 H :    0.003962    0.001251
  27 H :   -0.005673   -0.002057
  28 H :    0.001706   -0.007177
  29 H :   -0.024497   -0.000605
  30 H :   -0.024147    0.000817
  31 C :   -0.093871   -0.000051
  32 H :   -0.031225   -0.000189
  33 C :    0.115893    0.022018
  34 H :   -0.008798    0.004546
  35 H :   -0.012402   -0.000857
  36 C :    0.076626   -0.045380
  37 H :   -0.013912    0.003686
  38 H :   -0.008190    0.016717
  39 C :   -0.211455    0.589616
  40 H :    0.079713    0.160469
  41 H :   -0.020931    0.012198
  42 C :    0.095553   -0.000294
  43 H :    0.002013    0.000007
  44 H :    0.013029    0.000527
  45 H :    0.004527    0.000017
  46 C :    0.095648   -0.051934
  47 H :    0.003025    0.016341
  48 H :    0.003647    0.035709
  49 H :    0.003660    0.003287
  50 H :   -0.012088   -0.003823
  51 H :   -0.030722    0.001697
  52 H :    0.009115    0.000069
Sum of atomic charges         :   -0.0000000

LOEWDIN ATOMIC CHARGES AND SPIN POPULATIONS
-------------------------------------------
   0 C :   -0.050820    0.492896
   1 C :   -0.046520   -0.127137
   2 C :   -0.038184    0.020852
   3 C :   -0.021219   -0.005240
   4 C :   -0.024905    0.004112
   5 C :   -0.032714   -0.008393
   6 H :    0.017225   -0.000566
   7 H :    0.018642   -0.000198
   8 H :    0.022733    0.030876
   9 H :    0.022840    0.010768
  10 C :   -0.053218   -0.010348
  11 H :    0.024560    0.006777
  12 H :    0.025250    0.032912
  13 H :    0.024295    0.007550
  14 C :   -0.021797    0.012707
  15 C :   -0.023129    0.003645
  16 C :   -0.059319   -0.108226
  17 H :    0.018527   -0.000361
  18 C :   -0.018605   -0.003074
  19 C :   -0.035742    0.001927
  20 H :    0.021521   -0.000083
  21 C :   -0.042519   -0.001022
  22 H :    0.017079    0.000129
  23 H :    0.021489    0.000326
  24 C :   -0.038344   -0.001738
  25 H :    0.018910    0.000267
  26 H :    0.017137    0.002389
  27 H :    0.018043   -0.001008
  28 H :    0.024734   -0.005958
  29 H :    0.018485   -0.000457
  30 H :    0.019750    0.000252
  31 C :   -0.049422   -0.000199
  32 H :    0.015384    0.000118
  33 C :   -0.029294    0.025483
  34 H :    0.023205    0.002883
  35 H :    0.017710   -0.000152
  36 C :   -0.022159   -0.007796
  37 H :    0.018098    0.002543
  38 H :    0.021168    0.013294
  39 C :   -0.046626    0.463438
  40 H :    0.076291    0.107648
  41 H :    0.021113    0.005654
  42 C :   -0.050508    0.000232
  43 H :    0.028392    0.000022
  44 H :    0.027869    0.000483
  45 H :    0.022927    0.000129
  46 C :   -0.056845   -0.009821
  47 H :    0.027499    0.013362
  48 H :    0.025689    0.028033
  49 H :    0.022412    0.002172
  50 H :    0.023521   -0.004005
  51 H :    0.017398    0.001460
  52 H :    0.021992    0.000444

  Mayer bond orders larger than 0.100000
B(  0-C ,  1-C ) :   1.3607 B(  0-C ,  5-C ) :   1.0672 B(  0-C , 10-C ) :   1.1277
B(  1-C ,  2-C ) :   0.9539 B(  1-C , 15-C ) :   1.0383 B(  1-C , 40-H ) :   0.3797
B(  2-C ,  3-C ) :   0.9893 B(  2-C , 21-C ) :   1.0549 B(  2-C , 24-C ) :   1.0406
B(  3-C ,  4-C ) :   1.0691 B(  3-C , 14-C ) :   1.0511 B(  3-C , 51-H ) :   0.8942
B(  4-C ,  5-C ) :   1.0984 B(  4-C ,  6-H ) :   0.9180 B(  4-C ,  7-H ) :   0.9272
B(  5-C ,  8-H ) :   0.9049 B(  5-C ,  9-H ) :   0.9098 B( 10-C , 11-H ) :   0.9392
B( 10-C , 12-H ) :   0.9355 B( 10-C , 13-H ) :   0.9382 B( 14-C , 16-C ) :   1.0677
B( 14-C , 17-H ) :   0.9162 B( 14-C , 50-H ) :   0.9121 B( 15-C , 18-C ) :   1.0710
B( 15-C , 28-H ) :   0.9134 B( 15-C , 29-H ) :   0.9180 B( 16-C , 39-C ) :   1.3970
B( 16-C , 40-H ) :   0.4893 B( 16-C , 41-H ) :   0.8892 B( 18-C , 19-C ) :   1.0634
B( 18-C , 20-H ) :   0.9069 B( 18-C , 30-H ) :   0.9179 B( 19-C , 31-C ) :   1.8916
B( 19-C , 42-C ) :   1.0918 B( 21-C , 22-H ) :   0.9498 B( 21-C , 23-H ) :   0.9394
B( 21-C , 52-H ) :   0.9459 B( 24-C , 25-H ) :   0.9540 B( 24-C , 26-H ) :   0.9549
B( 24-C , 27-H ) :   0.9567 B( 31-C , 32-H ) :   0.9392 B( 31-C , 33-C ) :   1.0592
B( 33-C , 34-H ) :   0.9088 B( 33-C , 35-H ) :   0.9318 B( 33-C , 36-C ) :   1.0599
B( 36-C , 37-H ) :   0.9274 B( 36-C , 38-H ) :   0.9161 B( 36-C , 39-C ) :   1.0724
B( 39-C , 46-C ) :   1.1098 B( 42-C , 43-H ) :   0.9364 B( 42-C , 44-H ) :   0.9372
B( 42-C , 45-H ) :   0.9445 B( 46-C , 47-H ) :   0.9390 B( 46-C , 48-H ) :   0.9316
B( 46-C , 49-H ) :   0.9414

Dispersion correction           -0.123010790
FINAL SINGLE POINT ENERGY      -780.878618668969
Dispersion correction             ... done (  0.0 sec)

DIPOLE MOMENT
-------------

Method             : SCF
Type of density    : Electron Density
Multiplicity       :   2
Irrep              :   0
Energy             :  -780.7556078791066057 Eh
Basis              : AO
                                X                 Y                 Z
Electronic contribution:      0.223510917       0.058427519      -4.121757963
Nuclear contribution   :     -0.281806444      -0.094423342       4.230106130
                        -----------------------------------------
Total Dipole Moment    :     -0.058295527      -0.035995823       0.108348167
                        -----------------------------------------
Magnitude (a.u.)       :      0.128192797
Magnitude (Debye)      :      0.325840194

Rotational constants in cm-1:             0.015332             0.010200             0.008937
Rotational constants in MHz :           459.636041           305.779221           267.930667

                             ****ORCA TERMINATED NORMALLY****
TOTAL RUN TIME: 0 days 0 hours 2 minutes 26 seconds 394 msec
