                         Program Version 6.1.0  -  RELEASE   -
|  1> ! B3LYP def2-SVP d3 EnGrad
|  2> %pal nprocs 6 end
|  3> *xyz 0 1
|  4> C   -1.53352485059816 -1.59245765546108 0.33757870067156
|  5> C   -0.9532177894345 -0.97465538061508 -0.68559478431503
|  6> C   -0.39699515944125 0.71239152832869 -0.33467705897677
|  7> C   -0.61381637307265 1.28651798288356 0.93343109391212
|  8> C   2.13738186942579 -0.06648522623425 0.08230318360219
|  9> C   1.26736556740456 0.73865253351256 -0.56962877206175
| 10> H   -0.98471833405349 -1.34559990489068 -1.72099896877113
| 11> H   -1.51607329609253 -1.09462456890044 1.32025782164117
| 12> H   -2.06839855457514 -2.54165464909303 0.2384341607901
| 13> H   3.20302032790722 0.17013974848399 0.13990219350924
| 14> H   1.79028989343234 -0.96744092662359 0.5978225652373
| 15> H   0.37446339284759 -0.1940830376286 -0.79106250063849
| 16> H   1.54384011084484 1.6076210611137 -1.1653696295652
| 17> H   -1.40288816282155 2.03479037334203 1.02209320695987
| 18> H   -0.02366138369488 1.00786650964461 1.80316507262393
| 19> H   -0.8230672580782 1.21902161213763 -1.2076562846191
| 20> *
| 21>
| 22>                          ****END OF INPUT****

CARTESIAN COORDINATES (ANGSTROEM)
---------------------------------
  C     -1.533525   -1.592458    0.337579
  C     -0.953218   -0.974655   -0.685595
  C     -0.396995    0.712392   -0.334677
  C     -0.613816    1.286518    0.933431
  C      2.137382   -0.066485    0.082303
  C      1.267366    0.738653   -0.569629
  H     -0.984718   -1.345600   -1.720999
  H     -1.516073   -1.094625    1.320258
  H     -2.068399   -2.541655    0.238434
  H      3.203020    0.170140    0.139902
  H      1.790290   -0.967441    0.597823
  H      0.374463   -0.194083   -0.791063
  H      1.543840    1.607621   -1.165370
  H     -1.402888    2.034790    1.022093
  H     -0.023661    1.007867    1.803165
  H     -0.823067    1.219022   -1.207656

 Total Charge           Charge          ....    0
 Multiplicity           Mult            ....    1
 Number of Electrons    NEL             ....   46
 Basis Dimension        Dim             ....  134

ORBITAL ENERGIES
----------------

  NO   OCC          E(Eh)            E(eV)
   0   2.0000     -10.251714      -278.9633
   1   2.0000     -10.225372      -278.2465
   2   2.0000     -10.202207      -277.6162
   3   2.0000     -10.191436      -277.3231
   4   2.0000     -10.189782      -277.2781
   5   2.0000     -10.123543      -275.4756
   6   2.0000      -0.847950       -23.0739
   7   2.0000      -0.754371       -20.5275
   8   2.0000      -0.711218       -19.3532
   9   2.0000      -0.630072       -17.1451
  10   2.0000      -0.573266       -15.5994
  11   2.0000      -0.527184       -14.3454
  12   2.0000      -0.515165       -14.0184
  13   2.0000      -0.461801       -12.5662
  14   2.0000      -0.434917       -11.8347
  15   2.0000      -0.429389       -11.6843
  16   2.0000      -0.412307       -11.2194
  17   2.0000      -0.385010       -10.4767
  18   2.0000      -0.357142        -9.7183
  19   2.0000      -0.338664        -9.2155
  20   2.0000      -0.287735        -7.8297
  21   2.0000      -0.276658        -7.5282
  22   2.0000      -0.138932        -3.7805
  23   0.0000      -0.038487        -1.0473
  24   0.0000      -0.006102        -0.1660
  25   0.0000       0.059255         1.6124
  26   0.0000       0.078839         2.1453
  27   0.0000       0.086700         2.3592

MULLIKEN ATOMIC CHARGES
-----------------------
   0 C :    0.029161
   1 C :   -0.184178
   2 C :    0.041656
   3 C :   -0.174545
   4 C :   -0.065556
   5 C :   -0.037862
   6 H :    0.013094
   7 H :    0.029115
   8 H :    0.031037
   9 H :    0.043446
  10 H :    0.045728
  11 H :    0.151060
  12 H :    0.042547
  13 H :    0.005295
  14 H :    0.000633
  15 H :    0.029371
Sum of atomic charges:   -0.0000000

LOEWDIN ATOMIC CHARGES
----------------------
   0 C :   -0.020665
   1 C :   -0.100957
   2 C :    0.092976
   3 C :   -0.288982
   4 C :   -0.054082
   5 C :    0.004352
   6 H :    0.020289
   7 H :    0.026278
   8 H :    0.027714
   9 H :    0.032958
  10 H :    0.031740
  11 H :    0.125555
  12 H :    0.040356
  13 H :    0.013617
  14 H :    0.004188
  15 H :    0.044664

  Mayer bond orders larger than 0.100000
B(  0-C ,  1-C ) :   1.9773 B(  0-C ,  7-H ) :   0.9121 B(  0-C ,  8-H ) :   0.9523
B(  1-C ,  2-C ) :   0.5073 B(  1-C ,  6-H ) :   0.9178 B(  1-C , 11-H ) :   0.2113
B(  2-C ,  3-C ) :   1.4069 B(  2-C ,  5-C ) :   0.6423 B(  2-C , 11-H ) :   0.3569
B(  2-C , 15-H ) :   0.9150 B(  3-C ,  4-C ) :   0.1413 B(  3-C , 13-H ) :   0.9547
B(  3-C , 14-H ) :   0.9690 B(  4-C ,  5-C ) :   1.7254 B(  4-C ,  9-H ) :   0.9545
B(  4-C , 10-H ) :   0.9495 B(  5-C , 11-H ) :   0.3678 B(  5-C , 12-H ) :   0.9599

Dispersion correction           -0.022398140
FINAL SINGLE POINT ENERGY      -234.061273067288
Dispersion correction             ... done (  0.0 sec)

DIPOLE MOMENT
-------------

Method             : SCF
Type of density    : Electron Density
Multiplicity       :   1
Irrep              :   0
Energy             :  -234.0388749274827660 Eh
Basis              : AO
                                X                 Y                 Z
Electronic contribution:      0.193006078      -0.168987651      -1.260128905
Nuclear contribution   :      0.203693297      -0.228180912       0.519265283
                        -----------------------------------------
Total Dipole Moment    :      0.396699376      -0.397168563      -0.740863622
                        -----------------------------------------
Magnitude (a.u.)       :      0.929511791
Magnitude (Debye)      :      2.362631210

Rotational constants in cm-1:             0.159675             0.083692             0.068745
Rotational constants in MHz :          4786.933133          2509.023730          2060.910398

                             ****ORCA TERMINATED NORMALLY****
TOTAL RUN TIME: 0 days 0 hours 0 minutes 20 seconds 506 msec
