                         Program Version 6.1.0  -  RELEASE   -
|  1> ! B3LYP def2-SVP d3 EnGrad
|  2> %pal nprocs 6 end
|  3> *xyz 0 2
|  4> C   -0.0045434440214 -0.00690934513137 0.00284146075471
|  5> C   0.00346200198012 0.00611098541234 1.52106500082788
|  6> H   1.01937456195317 -0.00527236851795 -0.40649133994117
|  7> H   -0.53350500152467 -0.97209667004853 -0.21251691697469
|  8> H   -0.5545175331448 0.85725134398608 -0.40569979352399
|  9> C   -1.42090917466388 -0.00175942975756 2.05070565302556
| 10> C   0.76193275878358 -1.19961474853715 2.04985385927702
| 11> H   -1.44198133775259 0.00168327680252 3.15326886022531
| 12> H   -1.99362171833299 0.86484107487169 1.68083505943906
| 13> H   -1.81680681075167 -0.95889643519106 1.63228899392821
| 14> H   0.77522016494969 -1.21660594293413 3.15245675111347
| 15> H   0.16794539742308 -2.04769792778978 1.62894433773977
| 16> H   1.80110592904993 -1.21486050859014 1.68152328881431
| 17> F   -1.33807246753213 -2.45734880963082 0.52488688002674
| 18> Cl   0.87628773358459 1.59548998505589 2.12770102526781
| 19> *
| 20>
| 21>                          ****END OF INPUT****

CARTESIAN COORDINATES (ANGSTROEM)
---------------------------------
  C     -0.004543   -0.006909    0.002841
  C      0.003462    0.006111    1.521065
  H      1.019375   -0.005272   -0.406491
  H     -0.533505   -0.972097   -0.212517
  H     -0.554518    0.857251   -0.405700
  C     -1.420909   -0.001759    2.050706
  C      0.761933   -1.199615    2.049854
  H     -1.441981    0.001683    3.153269
  H     -1.993622    0.864841    1.680835
  H     -1.816807   -0.958896    1.632289
  H      0.775220   -1.216606    3.152457
  H      0.167945   -2.047698    1.628944
  H      1.801106   -1.214861    1.681523
  F     -1.338072   -2.457349    0.524887
  Cl     0.876288    1.595490    2.127701

 Total Charge           Charge          ....    0
 Multiplicity           Mult            ....    2
 Number of Electrons    NEL             ....   59
 Basis Dimension        Dim             ....  133

ORBITAL ENERGIES
----------------
                 SPIN UP ORBITALS
  NO   OCC          E(Eh)            E(eV)
   0   1.0000    -101.485333     -2761.5563
   1   1.0000     -24.730028      -672.9383
   2   1.0000     -10.260389      -279.1994
   3   1.0000     -10.207570      -277.7621
   4   1.0000     -10.191931      -277.3366
   5   1.0000     -10.190684      -277.3026
   6   1.0000      -9.438604      -256.8375
   7   1.0000      -7.208309      -196.1481
   8   1.0000      -7.198083      -195.8698
   9   1.0000      -7.197532      -195.8548
  10   1.0000      -1.154508       -31.4158
  11   1.0000      -0.860099       -23.4045
  12   1.0000      -0.770935       -20.9782
  13   1.0000      -0.701030       -19.0760
  14   1.0000      -0.692541       -18.8450
  15   1.0000      -0.547914       -14.9095
  16   1.0000      -0.520602       -14.1663
  17   1.0000      -0.464006       -12.6263
  18   1.0000      -0.456909       -12.4331
  19   1.0000      -0.454943       -12.3796
  20   1.0000      -0.445877       -12.1329
  21   1.0000      -0.444047       -12.0831
  22   1.0000      -0.391180       -10.6445
  23   1.0000      -0.385578       -10.4921
  24   1.0000      -0.379785       -10.3345
  25   1.0000      -0.362450        -9.8628
  26   1.0000      -0.360275        -9.8036
  27   1.0000      -0.343977        -9.3601
  28   1.0000      -0.293067        -7.9747
  29   1.0000      -0.290672        -7.9096
  30   0.0000       0.009078         0.2470
  31   0.0000       0.063836         1.7371
  32   0.0000       0.103585         2.8187
  33   0.0000       0.105529         2.8716
  34   0.0000       0.118580         3.2267

                 SPIN DOWN ORBITALS
  NO   OCC          E(Eh)            E(eV)
   0   1.0000    -101.484664     -2761.5381
   1   1.0000     -24.705034      -672.2581
   2   1.0000     -10.260583      -279.2046
   3   1.0000     -10.206059      -277.7210
   4   1.0000     -10.191507      -277.3250
   5   1.0000     -10.190354      -277.2936
   6   1.0000      -9.437978      -256.8204
   7   1.0000      -7.206577      -196.1009
   8   1.0000      -7.197318      -195.8490
   9   1.0000      -7.197153      -195.8445
  10   1.0000      -1.085401       -29.5353
  11   1.0000      -0.857600       -23.3365
  12   1.0000      -0.766617       -20.8607
  13   1.0000      -0.696899       -18.9636
  14   1.0000      -0.691080       -18.8052
  15   1.0000      -0.541726       -14.7411
  16   1.0000      -0.487641       -13.2694
  17   1.0000      -0.455624       -12.3982
  18   1.0000      -0.452926       -12.3247
  19   1.0000      -0.431938       -11.7536
  20   1.0000      -0.428001       -11.6465
  21   1.0000      -0.379091       -10.3156
  22   1.0000      -0.376054       -10.2329
  23   1.0000      -0.373378       -10.1601
  24   1.0000      -0.361484        -9.8365
  25   1.0000      -0.359779        -9.7901
  26   1.0000      -0.350723        -9.5437
  27   1.0000      -0.288974        -7.8634
  28   1.0000      -0.288693        -7.8557
  29   0.0000      -0.245893        -6.6911
  30   0.0000       0.011474         0.3122
  31   0.0000       0.065845         1.7917
  32   0.0000       0.104140         2.8338
  33   0.0000       0.105987         2.8841

MULLIKEN ATOMIC CHARGES AND SPIN POPULATIONS
--------------------------------------------
   0 C :    0.084980    0.094319
   1 C :   -0.295211   -0.016921
   2 H :    0.034164   -0.000196
   3 H :    0.048578    0.003869
   4 H :    0.034447    0.000122
   5 C :    0.079020    0.021105
   6 C :    0.078541    0.026958
   7 H :    0.024572    0.001183
   8 H :    0.021331   -0.000020
   9 H :    0.039683    0.001480
  10 H :    0.025683    0.001313
  11 H :    0.041201    0.001996
  12 H :    0.022255   -0.000168
  13 F :   -0.094036    0.776233
  14 Cl:   -0.145208    0.088727
Sum of atomic charges         :   -0.0000000

LOEWDIN ATOMIC CHARGES AND SPIN POPULATIONS
-------------------------------------------
   0 C :   -0.030452    0.073875
   1 C :   -0.059598   -0.006352
   2 H :    0.032912    0.002046
   3 H :    0.043768    0.019286
   4 H :    0.033216    0.002277
   5 C :   -0.053367    0.016717
   6 C :   -0.051751    0.021383
   7 H :    0.028408    0.001261
   8 H :    0.026279    0.000429
   9 H :    0.031621    0.004377
  10 H :    0.029006    0.001501
  11 H :    0.032676    0.005747
  12 H :    0.026624    0.000463
  13 F :   -0.094169    0.770593
  14 Cl:    0.004827    0.086399

  Mayer bond orders larger than 0.100000
B(  0-C ,  1-C ) :   1.0256 B(  0-C ,  2-H ) :   0.9551 B(  0-C ,  3-H ) :   0.8544
B(  0-C ,  4-H ) :   0.9550 B(  1-C ,  5-C ) :   1.0309 B(  1-C ,  6-C ) :   1.0306
B(  1-C , 14-Cl) :   0.9142 B(  3-H , 13-F ) :   0.1617 B(  5-C ,  7-H ) :   0.9577
B(  5-C ,  8-H ) :   0.9580 B(  5-C ,  9-H ) :   0.9074 B(  6-C , 10-H ) :   0.9574
B(  6-C , 11-H ) :   0.9024 B(  6-C , 12-H ) :   0.9577 B(  9-H , 13-F ) :   0.1101
B( 11-H , 13-F ) :   0.1151 B( 13-F , 14-Cl) :   0.1011

Dispersion correction           -0.022824981
FINAL SINGLE POINT ENERGY      -717.257752513373
Dispersion correction             ... done (  0.0 sec)

DIPOLE MOMENT
-------------

Method             : SCF
Type of density    : Electron Density
Multiplicity       :   2
Irrep              :   0
Energy             :  -717.2349275328216436 Eh
Basis              : AO
                                X                 Y                 Z
Electronic contribution:      1.993555243       3.577307466       1.137157056
Nuclear contribution   :     -2.083833526      -3.752186621      -1.303509097
                        -----------------------------------------
Total Dipole Moment    :     -0.090278283      -0.174879155      -0.166352041
                        -----------------------------------------
Magnitude (a.u.)       :      0.257693401
Magnitude (Debye)      :      0.655004572

Rotational constants in cm-1:             0.155823             0.045901             0.045899
Rotational constants in MHz :          4671.451848          1376.083858          1376.010650

                             ****ORCA TERMINATED NORMALLY****
TOTAL RUN TIME: 0 days 0 hours 0 minutes 19 seconds 605 msec
