                         Program Version 6.1.0  -  RELEASE   -
|  1> ! B3LYP def2-SVP d3 EnGrad
|  2> %pal nprocs 6 end
|  3> *xyz 0 1
|  4> H   -0.92943598661818 0.71655101208052 -1.51574663177011
|  5> C   -0.70934723946555 0.92334621013156 -0.46406774925579
|  6> C   0.54592829976137 0.54407305736784 0.06267716838022
|  7> H   -1.39155609465337 1.57535406459628 0.07757334045654
|  8> H   0.88018941975703 1.04609840529382 0.98463158048542
|  9> O   1.53874479078571 0.23138033029336 -0.8571118300076
| 10> H   2.16285380876566 -0.37879629076074 -0.43990746193185
| 11> O   -1.65072636408168 -0.6079047639133 0.6388448984442
| 12> C   -0.42339683643034 -1.01372517818811 0.53029048117142
| 13> H   0.01616992812812 -1.57530809446908 1.39681950819942
| 14> H   -0.03942372594879 -1.46106875243216 -0.41400330417187
| 15> *
| 16>
| 17>                          ****END OF INPUT****

CARTESIAN COORDINATES (ANGSTROEM)
---------------------------------
  H     -0.929436    0.716551   -1.515747
  C     -0.709347    0.923346   -0.464068
  C      0.545928    0.544073    0.062677
  H     -1.391556    1.575354    0.077573
  H      0.880189    1.046098    0.984632
  O      1.538745    0.231380   -0.857112
  H      2.162854   -0.378796   -0.439907
  O     -1.650726   -0.607905    0.638845
  C     -0.423397   -1.013725    0.530290
  H      0.016170   -1.575308    1.396820
  H     -0.039424   -1.461069   -0.414003

 Total Charge           Charge          ....    0
 Multiplicity           Mult            ....    1
 Number of Electrons    NEL             ....   40
 Basis Dimension        Dim             ....  100

ORBITAL ENERGIES
----------------

  NO   OCC          E(Eh)            E(eV)
   0   2.0000     -19.153375      -521.1898
   1   2.0000     -19.077945      -519.1373
   2   2.0000     -10.263639      -279.2878
   3   2.0000     -10.259068      -279.1634
   4   2.0000     -10.241751      -278.6922
   5   2.0000      -1.034383       -28.1470
   6   2.0000      -0.967688       -26.3321
   7   2.0000      -0.772415       -21.0185
   8   2.0000      -0.630664       -17.1612
   9   2.0000      -0.590079       -16.0569
  10   2.0000      -0.543255       -14.7827
  11   2.0000      -0.484602       -13.1867
  12   2.0000      -0.448749       -12.2111
  13   2.0000      -0.434626       -11.8268
  14   2.0000      -0.404855       -11.0167
  15   2.0000      -0.387753       -10.5513
  16   2.0000      -0.359934        -9.7943
  17   2.0000      -0.319342        -8.6897
  18   2.0000      -0.232004        -6.3132
  19   2.0000      -0.196803        -5.3553
  20   0.0000      -0.090355        -2.4587
  21   0.0000       0.042459         1.1554
  22   0.0000       0.078623         2.1394
  23   0.0000       0.085422         2.3245
  24   0.0000       0.097282         2.6472

MULLIKEN ATOMIC CHARGES
-----------------------
   0 H :    0.070697
   1 C :    0.180659
   2 C :   -0.061497
   3 H :    0.071870
   4 H :    0.024287
   5 O :   -0.257796
   6 H :    0.177732
   7 O :   -0.413273
   8 C :    0.217534
   9 H :   -0.011621
  10 H :    0.001409
Sum of atomic charges:   -0.0000000

LOEWDIN ATOMIC CHARGES
----------------------
   0 H :    0.048619
   1 C :    0.193075
   2 C :   -0.048612
   3 H :    0.046667
   4 H :    0.017664
   5 O :   -0.110204
   6 H :    0.085199
   7 O :   -0.320045
   8 C :    0.119412
   9 H :   -0.017888
  10 H :   -0.013887

  Mayer bond orders larger than 0.100000
B(  0-H ,  1-C ) :   0.9431 B(  1-C ,  2-C ) :   1.2797 B(  1-C ,  3-H ) :   0.9401
B(  1-C ,  7-O ) :   0.4705 B(  1-C ,  8-C ) :   0.1418 B(  2-C ,  4-H ) :   0.9213
B(  2-C ,  5-O ) :   1.0844 B(  2-C ,  8-C ) :   0.5643 B(  5-O ,  6-H ) :   0.9711
B(  7-O ,  8-C ) :   1.4561 B(  8-C ,  9-H ) :   0.9239 B(  8-C , 10-H ) :   0.8951

Dispersion correction           -0.012397106
FINAL SINGLE POINT ENERGY      -267.872244002649
Dispersion correction             ... done (  0.1 sec)

DIPOLE MOMENT
-------------

Method             : SCF
Type of density    : Electron Density
Multiplicity       :   1
Irrep              :   0
Energy             :  -267.8598468963886035 Eh
Basis              : AO
                                X                 Y                 Z
Electronic contribution:     -0.333270739       0.391899348      -0.321486510
Nuclear contribution   :      1.275377768      -0.028126474       0.222215843
                        -----------------------------------------
Total Dipole Moment    :      0.942107029       0.363772874      -0.099270667
                        -----------------------------------------
Magnitude (a.u.)       :      1.014766487
Magnitude (Debye)      :      2.579331427

Rotational constants in cm-1:             0.348755             0.126626             0.103229
Rotational constants in MHz :         10455.404084          3796.143946          3094.729665

                             ****ORCA TERMINATED NORMALLY****
TOTAL RUN TIME: 0 days 0 hours 0 minutes 13 seconds 418 msec
