                         Program Version 6.1.0  -  RELEASE   -
|  1> ! B3LYP def2-SVP d3 EnGrad
|  2> %pal nprocs 6 end
|  3> *xyz 0 1
|  4> C   -2.54820756172806 2.88098225361865 0.01391548938436
|  5> C   -1.21822444349767 2.80947281265488 -0.08428521587844
|  6> O   -0.39102294512506 3.81125742937954 0.31609696938523
|  7> H   -3.03665015468435 3.76671398710941 0.42768205872983
|  8> H   -3.16352461478219 2.04593732476181 -0.322572056426
|  9> H   -0.72672867777714 1.91941615610443 -0.50014029190143
| 10> H   0.52415940759449 3.55902003637128 0.14930303670644
| 11> *
| 12>
| 13>                          ****END OF INPUT****

CARTESIAN COORDINATES (ANGSTROEM)
---------------------------------
  C     -2.548208    2.880982    0.013915
  C     -1.218224    2.809473   -0.084285
  O     -0.391023    3.811257    0.316097
  H     -3.036650    3.766714    0.427682
  H     -3.163525    2.045937   -0.322572
  H     -0.726729    1.919416   -0.500140
  H      0.524159    3.559020    0.149303

 Total Charge           Charge          ....    0
 Multiplicity           Mult            ....    1
 Number of Electrons    NEL             ....   24
 Basis Dimension        Dim             ....   62

ORBITAL ENERGIES
----------------

  NO   OCC          E(Eh)            E(eV)
   0   2.0000     -19.157557      -521.3036
   1   2.0000     -10.237625      -278.5799
   2   2.0000     -10.162682      -276.5406
   3   2.0000      -1.041212       -28.3328
   4   2.0000      -0.737068       -20.0566
   5   2.0000      -0.578029       -15.7290
   6   2.0000      -0.539501       -14.6806
   7   2.0000      -0.436455       -11.8765
   8   2.0000      -0.395699       -10.7675
   9   2.0000      -0.385850       -10.4995
  10   2.0000      -0.346952        -9.4410
  11   2.0000      -0.225981        -6.1492
  12   0.0000       0.036117         0.9828
  13   0.0000       0.040592         1.1046
  14   0.0000       0.105046         2.8584
  15   0.0000       0.119770         3.2591
  16   0.0000       0.152116         4.1393

MULLIKEN ATOMIC CHARGES
-----------------------
   0 C :   -0.074043
   1 C :    0.070101
   2 O :   -0.211539
   3 H :    0.021232
   4 H :    0.018991
   5 H :   -0.002858
   6 H :    0.178116
Sum of atomic charges:    0.0000000

LOEWDIN ATOMIC CHARGES
----------------------
   0 C :   -0.132729
   1 C :    0.043159
   2 O :   -0.066048
   3 H :    0.026827
   4 H :    0.027887
   5 H :    0.010519
   6 H :    0.090386

  Mayer bond orders larger than 0.100000
B(  0-C ,  1-C ) :   1.9455 B(  0-C ,  3-H ) :   0.9538 B(  0-C ,  4-H ) :   0.9507
B(  1-C ,  2-O ) :   1.1558 B(  1-C ,  5-H ) :   0.9556 B(  2-O ,  6-H ) :   0.9712

Dispersion correction           -0.005332160
FINAL SINGLE POINT ENERGY      -153.612864586495
Dispersion correction             ... done (  0.1 sec)

DIPOLE MOMENT
-------------

Method             : SCF
Type of density    : Electron Density
Multiplicity       :   1
Irrep              :   0
Energy             :  -153.6075324261356627 Eh
Basis              : AO
                                X                 Y                 Z
Electronic contribution:      1.694334114       0.982074370       0.349491390
Nuclear contribution   :     -1.056817431      -1.384023637      -0.564897712
                        -----------------------------------------
Total Dipole Moment    :      0.637516683      -0.401949267      -0.215406322
                        -----------------------------------------
Magnitude (a.u.)       :      0.783830733
Magnitude (Debye)      :      1.992339390

Rotational constants in cm-1:             2.143810             0.345883             0.297832
Rotational constants in MHz :         64269.798441         10369.320788          8928.775454

                             ****ORCA TERMINATED NORMALLY****
TOTAL RUN TIME: 0 days 0 hours 0 minutes 6 seconds 689 msec
