                         Program Version 6.1.0  -  RELEASE   -
|  1> ! B3LYP def2-SVP d3 EnGrad
|  2> %pal nprocs 6 end
|  3> *xyz 0 1
|  4> C   0.40012901332868 0.51134544736701 0.19246009250838
|  5> H   -0.00535788685041 1.34674946153128 -0.41460800442619
|  6> H   1.49594607199525 0.52547964130171 0.08180801494115
|  7> O   -0.05390422316282 -0.75204945134913 -0.22946249531669
|  8> H   -1.0113126521511 -0.78338082808963 -0.11014660012777
|  9> H   0.17307309684039 0.72510035923873 1.25722499242112
| 10> *
| 11>
| 12>                          ****END OF INPUT****

CARTESIAN COORDINATES (ANGSTROEM)
---------------------------------
  C      0.400129    0.511345    0.192460
  H     -0.005358    1.346749   -0.414608
  H      1.495946    0.525480    0.081808
  O     -0.053904   -0.752049   -0.229462
  H     -1.011313   -0.783381   -0.110147
  H      0.173073    0.725100    1.257225

 Total Charge           Charge          ....    0
 Multiplicity           Mult            ....    1
 Number of Electrons    NEL             ....   18
 Basis Dimension        Dim             ....   48

ORBITAL ENERGIES
----------------

  NO   OCC          E(Eh)            E(eV)
   0   2.0000     -19.120392      -520.2923
   1   2.0000     -10.225089      -278.2388
   2   2.0000      -0.997846       -27.1528
   3   2.0000      -0.666508       -18.1366
   4   2.0000      -0.501322       -13.6417
   5   2.0000      -0.431113       -11.7312
   6   2.0000      -0.418432       -11.3861
   7   2.0000      -0.324730        -8.8363
   8   2.0000      -0.264044        -7.1850
   9   0.0000       0.055027         1.4973
  10   0.0000       0.095030         2.5859
  11   0.0000       0.136573         3.7163
  12   0.0000       0.138288         3.7630
  13   0.0000       0.201490         5.4828

MULLIKEN ATOMIC CHARGES
-----------------------
   0 C :    0.150137
   1 H :   -0.001711
   2 H :    0.019880
   3 O :   -0.329153
   4 H :    0.162538
   5 H :   -0.001690
Sum of atomic charges:   -0.0000000

LOEWDIN ATOMIC CHARGES
----------------------
   0 C :    0.058324
   1 H :    0.000290
   2 H :    0.019521
   3 O :   -0.153596
   4 H :    0.074947
   5 H :    0.000514

  Mayer bond orders larger than 0.100000
B(  0-C ,  1-H ) :   0.9684 B(  0-C ,  2-H ) :   0.9813 B(  0-C ,  3-O ) :   1.0469
B(  0-C ,  5-H ) :   0.9689 B(  3-O ,  4-H ) :   0.9865

Dispersion correction           -0.003102042
FINAL SINGLE POINT ENERGY      -115.568837078047
Dispersion correction             ... done (  0.1 sec)

DIPOLE MOMENT
-------------

Method             : SCF
Type of density    : Electron Density
Multiplicity       :   1
Irrep              :   0
Energy             :  -115.5657350358568181 Eh
Basis              : AO
                                X                 Y                 Z
Electronic contribution:     -0.486444209      -1.740753591      -0.600585701
Nuclear contribution   :      0.070223652       2.168268591       0.823888157
                        -----------------------------------------
Total Dipole Moment    :     -0.416220556       0.427515000       0.223302456
                        -----------------------------------------
Magnitude (a.u.)       :      0.637081324
Magnitude (Debye)      :      1.619332036

Rotational constants in cm-1:             4.232625             0.832241             0.802766
Rotational constants in MHz :        126890.910718         24949.942684         24066.333194

                             ****ORCA TERMINATED NORMALLY****
TOTAL RUN TIME: 0 days 0 hours 0 minutes 5 seconds 324 msec
