                         Program Version 6.1.0  -  RELEASE   -
|  1> ! B3LYP def2-SVP d3 EnGrad
|  2> %pal nprocs 6 end
|  3> *xyz 0 2
|  4> C   -1.81063134783409 0.86258644384993 -1.23761240342026
|  5> C   -1.45853435018919 1.00640966091265 0.05929799584217
|  6> C   -1.63074289086643 -0.12954642441574 1.08824531753396
|  7> C   -1.7239074711321 -1.53695350838711 0.41915273585393
|  8> C   -2.65584857230538 -1.50628811861481 -0.79769430955905
|  9> C   -2.27785791036149 -0.44697415924435 -1.8288110939017
| 10> H   -2.69083525382143 -2.50322833543432 -1.26766762599289
| 11> H   -3.68048736342474 -1.30167101181931 -0.44811185070408
| 12> H   -1.49262584916134 -0.82119327727641 -2.51218674255609
| 13> H   -3.14281708295579 -0.24990437829502 -2.48732152389114
| 14> C   -1.74091795464088 1.97620525843884 -2.2543637696766
| 15> H   -1.65793515945732 2.97638615132794 -1.81080379542941
| 16> H   -0.87762006460942 1.84002978353676 -2.93189544783303
| 17> H   -2.6396570959544 1.96661343812689 -2.89468101413173
| 18> C   -0.38317778716589 -2.26162334129166 0.1580015329016
| 19> C   -0.98689774283975 2.35029649533176 0.59826335383891
| 20> C   0.67098305076475 -1.64985709212463 -0.74721988232311
| 21> H   0.07842261204565 -2.4775627726241 1.13134134073572
| 22> C   0.41641414518485 2.81282148338727 0.11489820532398
| 23> C   1.54009369049705 1.83620949437034 0.32514076244315
| 24> H   0.64664048125998 3.76160654601123 0.63354197872427
| 25> C   -0.51116531850389 -0.15460699890683 2.14799921871977
| 26> H   -0.53748988600761 0.73285016612828 2.79494395647329
| 27> H   -0.64472072793329 -1.03028991571832 2.80313533082334
| 28> C   -2.95568830549985 0.15126942805393 1.84242901741525
| 29> H   -2.9417983608883 1.15362217961781 2.29846019528227
| 30> H   -3.82314100183492 0.10968978936616 1.16825292027633
| 31> H   -3.10736965999728 -0.58193565771736 2.65232737555044
| 32> H   -1.70854624963782 3.13748871220318 0.31834194772028
| 33> H   -0.98919828821984 2.33510710987758 1.69618896477876
| 34> H   0.35152908988937 3.05327522532629 -0.95749965987959
| 35> C   1.79026070294246 0.86413031186535 -0.66862950439768
| 36> H   1.3402785063261 1.11080522642153 -1.64421039963193
| 37> C   3.10298707840796 0.12166583922095 -0.80746274680304
| 38> H   3.80413605404428 0.73057983626121 -1.40261412679475
| 39> H   3.57215045030379 -0.02463693354942 0.17861037235403
| 40> C   2.9565052593856 -1.26877534844412 -1.51146513548649
| 41> H   2.57787497388593 -1.09118248376494 -2.53450459134238
| 42> H   3.95144575875688 -1.73251653505915 -1.60228825996337
| 43> C   2.00548174047171 -2.11359359042968 -0.72566147434345
| 44> H   0.97065977742232 -0.25812435409694 -0.43336176005928
| 45> H   0.30938058028002 -1.3451742406585 -1.73854821721305
| 46> C   2.26940565642635 1.88312875897026 1.6359658124404
| 47> H   3.07164713268474 2.64874591580653 1.62773520258819
| 48> H   1.59218282694378 2.15388112611535 2.46422442267629
| 49> H   2.746234627487 0.92566436215461 1.89749601450777
| 50> C   2.55435856330555 -2.92861672765886 0.41001768270286
| 51> H   1.91768439361678 -3.79449581060539 0.65240627308883
| 52> H   3.56135455846474 -3.30747978859742 0.1728323113485
| 53> H   2.64952302423468 -2.33847469621992 1.34728964085004
| 54> H   -0.64550689270858 -3.25295896756689 -0.25956336966467
| 55> H   -2.21921868443683 -2.18048802118949 1.16831366981201
| 56> H   0.48670253735545 -0.21291625297193 1.69932515239234
| 57> *
| 58>
| 59>                          ****END OF INPUT****

CARTESIAN COORDINATES (ANGSTROEM)
---------------------------------
  C     -1.810631    0.862586   -1.237612
  C     -1.458534    1.006410    0.059298
  C     -1.630743   -0.129546    1.088245
  C     -1.723907   -1.536954    0.419153
  C     -2.655849   -1.506288   -0.797694
  C     -2.277858   -0.446974   -1.828811
  H     -2.690835   -2.503228   -1.267668
  H     -3.680487   -1.301671   -0.448112
  H     -1.492626   -0.821193   -2.512187
  H     -3.142817   -0.249904   -2.487322
  C     -1.740918    1.976205   -2.254364
  H     -1.657935    2.976386   -1.810804
  H     -0.877620    1.840030   -2.931895
  H     -2.639657    1.966613   -2.894681
  C     -0.383178   -2.261623    0.158002
  C     -0.986898    2.350296    0.598263
  C      0.670983   -1.649857   -0.747220
  H      0.078423   -2.477563    1.131341
  C      0.416414    2.812821    0.114898
  C      1.540094    1.836209    0.325141
  H      0.646640    3.761607    0.633542
  C     -0.511165   -0.154607    2.147999
  H     -0.537490    0.732850    2.794944
  H     -0.644721   -1.030290    2.803135
  C     -2.955688    0.151269    1.842429
  H     -2.941798    1.153622    2.298460
  H     -3.823141    0.109690    1.168253
  H     -3.107370   -0.581936    2.652327
  H     -1.708546    3.137489    0.318342
  H     -0.989198    2.335107    1.696189
  H      0.351529    3.053275   -0.957500
  C      1.790261    0.864130   -0.668630
  H      1.340279    1.110805   -1.644210
  C      3.102987    0.121666   -0.807463
  H      3.804136    0.730580   -1.402614
  H      3.572150   -0.024637    0.178610
  C      2.956505   -1.268775   -1.511465
  H      2.577875   -1.091182   -2.534505
  H      3.951446   -1.732517   -1.602288
  C      2.005482   -2.113594   -0.725661
  H      0.970660   -0.258124   -0.433362
  H      0.309381   -1.345174   -1.738548
  C      2.269406    1.883129    1.635966
  H      3.071647    2.648746    1.627735
  H      1.592183    2.153881    2.464224
  H      2.746235    0.925664    1.897496
  C      2.554359   -2.928617    0.410018
  H      1.917684   -3.794496    0.652406
  H      3.561355   -3.307480    0.172832
  H      2.649523   -2.338475    1.347290
  H     -0.645507   -3.252959   -0.259563
  H     -2.219219   -2.180488    1.168314
  H      0.486703   -0.212916    1.699325

 Total Charge           Charge          ....    0
 Multiplicity           Mult            ....    2
 Number of Electrons    NEL             ....  153
 Basis Dimension        Dim             ....  445

ORBITAL ENERGIES
----------------
                 SPIN UP ORBITALS
  NO   OCC          E(Eh)            E(eV)
   0   1.0000     -10.189142      -277.2607
   1   1.0000     -10.179906      -277.0093
   2   1.0000     -10.177387      -276.9408
   3   1.0000     -10.176482      -276.9162
   4   1.0000     -10.175766      -276.8967
   5   1.0000     -10.175347      -276.8853
   6   1.0000     -10.174866      -276.8722
   7   1.0000     -10.174680      -276.8671
   8   1.0000     -10.174659      -276.8666
   9   1.0000     -10.174600      -276.8649
  10   1.0000     -10.174471      -276.8614
  11   1.0000     -10.173810      -276.8435
  12   1.0000     -10.172445      -276.8063
  13   1.0000     -10.172308      -276.8026
  14   1.0000     -10.171791      -276.7885
  15   1.0000     -10.171305      -276.7753
  16   1.0000     -10.171184      -276.7720
  17   1.0000     -10.171152      -276.7711
  18   1.0000     -10.169312      -276.7211
  19   1.0000     -10.166321      -276.6397
  20   1.0000      -0.840944       -22.8832
  21   1.0000      -0.816302       -22.2127
  22   1.0000      -0.799854       -21.7651
  23   1.0000      -0.774741       -21.0818
  24   1.0000      -0.758934       -20.6516
  25   1.0000      -0.744542       -20.2600
  26   1.0000      -0.708606       -19.2822
  27   1.0000      -0.707588       -19.2545
  28   1.0000      -0.669779       -18.2256
  29   1.0000      -0.667963       -18.1762
  30   1.0000      -0.667435       -18.1618
  31   1.0000      -0.663666       -18.0593
  32   1.0000      -0.626401       -17.0452
  33   1.0000      -0.616746       -16.7825
  34   1.0000      -0.573518       -15.6062
  35   1.0000      -0.564762       -15.3679
  36   1.0000      -0.545441       -14.8422
  37   1.0000      -0.519384       -14.1332
  38   1.0000      -0.501128       -13.6364
  39   1.0000      -0.476232       -12.9589
  40   1.0000      -0.472591       -12.8599
  41   1.0000      -0.467519       -12.7218
  42   1.0000      -0.460589       -12.5333
  43   1.0000      -0.448319       -12.1994
  44   1.0000      -0.443497       -12.0682
  45   1.0000      -0.435832       -11.8596
  46   1.0000      -0.429096       -11.6763
  47   1.0000      -0.418251       -11.3812
  48   1.0000      -0.417455       -11.3595
  49   1.0000      -0.409839       -11.1523
  50   1.0000      -0.405839       -11.0435
  51   1.0000      -0.397533       -10.8174
  52   1.0000      -0.394065       -10.7231
  53   1.0000      -0.391388       -10.6502
  54   1.0000      -0.388298       -10.5661
  55   1.0000      -0.381101       -10.3703
  56   1.0000      -0.377486       -10.2719
  57   1.0000      -0.371085       -10.0977
  58   1.0000      -0.368964       -10.0400
  59   1.0000      -0.365285        -9.9399
  60   1.0000      -0.362394        -9.8612
  61   1.0000      -0.354928        -9.6581
  62   1.0000      -0.351510        -9.5651
  63   1.0000      -0.345289        -9.3958
  64   1.0000      -0.339361        -9.2345
  65   1.0000      -0.337011        -9.1705
  66   1.0000      -0.334208        -9.0943
  67   1.0000      -0.331731        -9.0269
  68   1.0000      -0.321874        -8.7586
  69   1.0000      -0.312584        -8.5058
  70   1.0000      -0.308085        -8.3834
  71   1.0000      -0.296487        -8.0678
  72   1.0000      -0.292648        -7.9634
  73   1.0000      -0.280488        -7.6325
  74   1.0000      -0.226546        -6.1646
  75   1.0000      -0.216653        -5.8954
  76   1.0000      -0.131207        -3.5703
  77   0.0000      -0.004948        -0.1346
  78   0.0000       0.021272         0.5788
  79   0.0000       0.045016         1.2249
  80   0.0000       0.058274         1.5857
  81   0.0000       0.062529         1.7015

                 SPIN DOWN ORBITALS
  NO   OCC          E(Eh)            E(eV)
   0   1.0000     -10.189134      -277.2604
   1   1.0000     -10.178820      -276.9798
   2   1.0000     -10.177444      -276.9423
   3   1.0000     -10.176358      -276.9128
   4   1.0000     -10.175996      -276.9029
   5   1.0000     -10.175613      -276.8925
   6   1.0000     -10.175378      -276.8861
   7   1.0000     -10.175249      -276.8826
   8   1.0000     -10.175159      -276.8801
   9   1.0000     -10.174856      -276.8719
  10   1.0000     -10.174711      -276.8680
  11   1.0000     -10.174660      -276.8666
  12   1.0000     -10.173701      -276.8405
  13   1.0000     -10.172213      -276.8000
  14   1.0000     -10.171303      -276.7752
  15   1.0000     -10.171231      -276.7733
  16   1.0000     -10.169316      -276.7211
  17   1.0000     -10.166312      -276.6394
  18   1.0000     -10.165550      -276.6187
  19   1.0000     -10.162689      -276.5408
  20   1.0000      -0.840347       -22.8670
  21   1.0000      -0.810943       -22.0669
  22   1.0000      -0.794322       -21.6146
  23   1.0000      -0.773761       -21.0551
  24   1.0000      -0.755514       -20.5586
  25   1.0000      -0.743954       -20.2440
  26   1.0000      -0.707710       -19.2578
  27   1.0000      -0.704709       -19.1761
  28   1.0000      -0.669674       -18.2228
  29   1.0000      -0.667802       -18.1718
  30   1.0000      -0.667151       -18.1541
  31   1.0000      -0.663314       -18.0497
  32   1.0000      -0.623735       -16.9727
  33   1.0000      -0.615883       -16.7590
  34   1.0000      -0.572121       -15.5682
  35   1.0000      -0.564440       -15.3592
  36   1.0000      -0.544201       -14.8085
  37   1.0000      -0.512897       -13.9566
  38   1.0000      -0.496977       -13.5234
  39   1.0000      -0.475110       -12.9284
  40   1.0000      -0.471933       -12.8419
  41   1.0000      -0.465979       -12.6799
  42   1.0000      -0.456558       -12.4236
  43   1.0000      -0.446939       -12.1618
  44   1.0000      -0.441460       -12.0127
  45   1.0000      -0.434977       -11.8363
  46   1.0000      -0.427241       -11.6258
  47   1.0000      -0.416564       -11.3353
  48   1.0000      -0.412541       -11.2258
  49   1.0000      -0.407103       -11.0778
  50   1.0000      -0.403325       -10.9750
  51   1.0000      -0.396541       -10.7904
  52   1.0000      -0.393311       -10.7025
  53   1.0000      -0.390360       -10.6222
  54   1.0000      -0.385304       -10.4847
  55   1.0000      -0.380099       -10.3430
  56   1.0000      -0.376795       -10.2531
  57   1.0000      -0.370804       -10.0901
  58   1.0000      -0.366707        -9.9786
  59   1.0000      -0.363459        -9.8902
  60   1.0000      -0.361325        -9.8322
  61   1.0000      -0.354144        -9.6368
  62   1.0000      -0.350631        -9.5412
  63   1.0000      -0.344731        -9.3806
  64   1.0000      -0.338039        -9.1985
  65   1.0000      -0.336224        -9.1491
  66   1.0000      -0.332392        -9.0448
  67   1.0000      -0.330581        -8.9956
  68   1.0000      -0.320758        -8.7283
  69   1.0000      -0.310465        -8.4482
  70   1.0000      -0.306596        -8.3429
  71   1.0000      -0.295827        -8.0499
  72   1.0000      -0.291923        -7.9436
  73   1.0000      -0.280309        -7.6276
  74   1.0000      -0.217506        -5.9186
  75   1.0000      -0.201447        -5.4817
  76   0.0000      -0.036567        -0.9950
  77   0.0000       0.017446         0.4747
  78   0.0000       0.021570         0.5869
  79   0.0000       0.045475         1.2374
  80   0.0000       0.059044         1.6067

MULLIKEN ATOMIC CHARGES AND SPIN POPULATIONS
--------------------------------------------
   0 C :   -0.233902    0.008250
   1 C :   -0.038794   -0.006203
   2 C :   -0.255702    0.001187
   3 C :   -0.016012   -0.002417
   4 C :    0.090887    0.000261
   5 C :    0.102269    0.000222
   6 H :   -0.022124   -0.000068
   7 H :   -0.011263   -0.000039
   8 H :   -0.002729    0.000104
   9 H :   -0.014915    0.000724
  10 C :    0.089340   -0.000767
  11 H :    0.010013    0.000425
  12 H :    0.014349    0.000161
  13 H :   -0.000121    0.000852
  14 C :    0.141283    0.011507
  15 C :    0.096228    0.026736
  16 C :   -0.028068   -0.204241
  17 H :   -0.017993   -0.001325
  18 C :    0.113252   -0.050203
  19 C :   -0.230927    0.626210
  20 H :   -0.020451    0.011722
  21 C :    0.114909   -0.000004
  22 H :   -0.006839    0.000271
  23 H :   -0.005686    0.000191
  24 C :    0.118380   -0.000021
  25 H :   -0.006874    0.000040
  26 H :   -0.003630   -0.000010
  27 H :   -0.004417   -0.000072
  28 H :   -0.001904    0.005191
  29 H :   -0.022887   -0.000968
  30 H :   -0.016358    0.008603
  31 C :   -0.034478   -0.205701
  32 H :   -0.022868    0.020405
  33 C :    0.085964    0.049456
  34 H :    0.010943   -0.006945
  35 H :   -0.016572   -0.002665
  36 C :    0.077400   -0.048478
  37 H :   -0.009726    0.011686
  38 H :   -0.012603    0.005095
  39 C :   -0.223428    0.583015
  40 H :    0.039872    0.135115
  41 H :   -0.019608    0.025538
  42 C :    0.091396   -0.055478
  43 H :    0.013838    0.033813
  44 H :    0.000369    0.013811
  45 H :    0.010656    0.007972
  46 C :    0.075784   -0.053330
  47 H :    0.017088    0.010095
  48 H :    0.000544    0.005113
  49 H :    0.010851    0.044302
  50 H :   -0.006035   -0.007745
  51 H :   -0.035051    0.000129
  52 H :    0.016348   -0.001519
Sum of atomic charges         :   -0.0000000

LOEWDIN ATOMIC CHARGES AND SPIN POPULATIONS
-------------------------------------------
   0 C :   -0.050338    0.005936
   1 C :   -0.031433   -0.003177
   2 C :   -0.036232    0.000416
   3 C :   -0.016511   -0.001978
   4 C :   -0.023704    0.000117
   5 C :   -0.028131    0.000723
   6 H :    0.018378   -0.000069
   7 H :    0.018695   -0.000028
   8 H :    0.020304    0.000851
   9 H :    0.022909    0.000496
  10 C :   -0.048405    0.000321
  11 H :    0.023670    0.000318
  12 H :    0.027577    0.000551
  13 H :    0.024945    0.000525
  14 C :   -0.027022    0.001372
  15 C :   -0.022679    0.028983
  16 C :   -0.053401   -0.115457
  17 H :    0.020163   -0.000970
  18 C :   -0.021944   -0.008295
  19 C :   -0.053192    0.492363
  20 H :    0.020677    0.008739
  21 C :   -0.037800    0.000403
  22 H :    0.015636    0.000236
  23 H :    0.020135    0.000177
  24 C :   -0.034294   -0.000074
  25 H :    0.018853    0.000068
  26 H :    0.017238   -0.000005
  27 H :    0.016637   -0.000044
  28 H :    0.024064    0.003351
  29 H :    0.015933   -0.000163
  30 H :    0.019593    0.006368
  31 C :   -0.059976   -0.106734
  32 H :    0.019837    0.010120
  33 C :   -0.022150    0.038129
  34 H :    0.029528   -0.004880
  35 H :    0.018713   -0.000824
  36 C :   -0.026258   -0.009569
  37 H :    0.019812    0.008877
  38 H :    0.019589    0.003492
  39 C :   -0.062454    0.470159
  40 H :    0.071867    0.087305
  41 H :    0.020057    0.015744
  42 C :   -0.054625   -0.010631
  43 H :    0.030058    0.028590
  44 H :    0.023219    0.010719
  45 H :    0.021821    0.005453
  46 C :   -0.057443   -0.008853
  47 H :    0.027071    0.008848
  48 H :    0.025714    0.004039
  49 H :    0.023227    0.034358
  50 H :    0.027475   -0.006835
  51 H :    0.020250    0.000126
  52 H :    0.024348    0.000313

  Mayer bond orders larger than 0.100000
B(  0-C ,  1-C ) :   1.8740 B(  0-C ,  5-C ) :   1.0420 B(  0-C , 10-C ) :   1.1027
B(  1-C ,  2-C ) :   0.9475 B(  1-C , 15-C ) :   1.0579 B(  2-C ,  3-C ) :   0.9867
B(  2-C , 21-C ) :   1.0769 B(  2-C , 24-C ) :   1.0387 B(  3-C ,  4-C ) :   1.0633
B(  3-C , 14-C ) :   1.0733 B(  3-C , 51-H ) :   0.8831 B(  4-C ,  5-C ) :   1.0988
B(  4-C ,  6-H ) :   0.9175 B(  4-C ,  7-H ) :   0.9295 B(  5-C ,  8-H ) :   0.9068
B(  5-C ,  9-H ) :   0.9095 B( 10-C , 11-H ) :   0.9419 B( 10-C , 12-H ) :   0.9446
B( 10-C , 13-H ) :   0.9422 B( 14-C , 16-C ) :   1.0771 B( 14-C , 17-H ) :   0.8914
B( 14-C , 50-H ) :   0.9087 B( 15-C , 18-C ) :   1.0788 B( 15-C , 28-H ) :   0.9086
B( 15-C , 29-H ) :   0.9129 B( 16-C , 39-C ) :   1.3809 B( 16-C , 40-H ) :   0.4315
B( 16-C , 41-H ) :   0.8962 B( 18-C , 19-C ) :   1.0779 B( 18-C , 20-H ) :   0.9112
B( 18-C , 30-H ) :   0.9193 B( 19-C , 31-C ) :   1.3859 B( 19-C , 42-C ) :   1.0973
B( 21-C , 22-H ) :   0.9431 B( 21-C , 23-H ) :   0.9421 B( 21-C , 52-H ) :   0.9372
B( 24-C , 25-H ) :   0.9534 B( 24-C , 26-H ) :   0.9576 B( 24-C , 27-H ) :   0.9545
B( 31-C , 32-H ) :   0.8965 B( 31-C , 33-C ) :   1.0847 B( 31-C , 40-H ) :   0.4779
B( 33-C , 34-H ) :   0.9240 B( 33-C , 35-H ) :   0.9192 B( 33-C , 36-C ) :   1.0472
B( 36-C , 37-H ) :   0.9233 B( 36-C , 38-H ) :   0.9272 B( 36-C , 39-C ) :   1.0865
B( 39-C , 46-C ) :   1.1184 B( 42-C , 43-H ) :   0.9349 B( 42-C , 44-H ) :   0.9462
B( 42-C , 45-H ) :   0.9469 B( 46-C , 47-H ) :   0.9457 B( 46-C , 48-H ) :   0.9491
B( 46-C , 49-H ) :   0.9327

Dispersion correction           -0.121721711
FINAL SINGLE POINT ENERGY      -780.876001688357
Dispersion correction             ... done (  0.0 sec)

DIPOLE MOMENT
-------------

Method             : SCF
Type of density    : Electron Density
Multiplicity       :   2
Irrep              :   0
Energy             :  -780.7542799774547575 Eh
Basis              : AO
                                X                 Y                 Z
Electronic contribution:     -1.818641563      -0.206348092      -3.815251517
Nuclear contribution   :      1.810085802       0.288503002       3.886044207
                        -----------------------------------------
Total Dipole Moment    :     -0.008555761       0.082154910       0.070792689
                        -----------------------------------------
Magnitude (a.u.)       :      0.108785271
Magnitude (Debye)      :      0.276510184

Rotational constants in cm-1:             0.014042             0.010760             0.008867
Rotational constants in MHz :           420.966129           322.576725           265.820994

                             ****ORCA TERMINATED NORMALLY****
TOTAL RUN TIME: 0 days 0 hours 2 minutes 25 seconds 381 msec
