                         Program Version 6.1.0  -  RELEASE   -
|  1> ! B3LYP def2-SVP d3 EnGrad
|  2> %pal nprocs 6 end
|  3> *xyz 0 1
|  4> C   -0.66820083381015 -0.16466065450267 1.21668966037393
|  5> O   1.13419097808127 -1.34787774660627 0.39188998412398
|  6> C   0.5069409070235 -0.30399268733159 0.23288928181214
|  7> F   -0.51997192167313 -0.53406890221381 2.41299671248968
|  8> F   -1.8744289237128 0.13028352108266 0.94864364302425
|  9> C   0.1719176369323 0.20167149082914 -1.19884159638918
| 10> F   1.07447748736787 0.9966941006837 0.88714500087313
| 11> F   1.28502379099343 0.44641474042224 -1.87239517717879
| 12> F   -0.53110399808521 -0.74131636303105 -1.84473864291892
| 13> F   -0.57884512311709 1.31685250066764 -1.17427886621022
| 14> *
| 15>
| 16>                          ****END OF INPUT****

CARTESIAN COORDINATES (ANGSTROEM)
---------------------------------
  C     -0.668201   -0.164661    1.216690
  O      1.134191   -1.347878    0.391890
  C      0.506941   -0.303993    0.232889
  F     -0.519972   -0.534069    2.412997
  F     -1.874429    0.130284    0.948644
  C      0.171918    0.201671   -1.198842
  F      1.074477    0.996694    0.887145
  F      1.285024    0.446415   -1.872395
  F     -0.531104   -0.741316   -1.844739
  F     -0.578845    1.316853   -1.174279

 Total Charge           Charge          ....    0
 Multiplicity           Mult            ....    1
 Number of Electrons    NEL             ....   80
 Basis Dimension        Dim             ....  140

ORBITAL ENERGIES
----------------

  NO   OCC          E(Eh)            E(eV)
   0   2.0000     -24.861667      -676.5203
   1   2.0000     -24.856140      -676.3699
   2   2.0000     -24.733570      -673.0346
   3   2.0000     -24.731198      -672.9701
   4   2.0000     -24.730661      -672.9555
   5   2.0000     -24.669695      -671.2965
   6   2.0000     -19.123505      -520.3770
   7   2.0000     -10.507116      -285.9132
   8   2.0000     -10.442678      -284.1597
   9   2.0000     -10.355818      -281.7961
  10   2.0000      -1.427028       -38.8314
  11   2.0000      -1.353595       -36.8332
  12   2.0000      -1.313669       -35.7467
  13   2.0000      -1.222889       -33.2765
  14   2.0000      -1.219743       -33.1909
  15   2.0000      -1.149602       -31.2823
  16   2.0000      -1.038450       -28.2577
  17   2.0000      -0.811862       -22.0919
  18   2.0000      -0.756017       -20.5723
  19   2.0000      -0.712598       -19.3908
  20   2.0000      -0.702113       -19.1055
  21   2.0000      -0.658629       -17.9222
  22   2.0000      -0.637305       -17.3420
  23   2.0000      -0.606978       -16.5167
  24   2.0000      -0.604912       -16.4605
  25   2.0000      -0.569910       -15.5080
  26   2.0000      -0.569474       -15.4962
  27   2.0000      -0.545855       -14.8535
  28   2.0000      -0.508096       -13.8260
  29   2.0000      -0.482551       -13.1309
  30   2.0000      -0.479273       -13.0417
  31   2.0000      -0.460589       -12.5333
  32   2.0000      -0.443234       -12.0610
  33   2.0000      -0.441514       -12.0142
  34   2.0000      -0.436630       -11.8813
  35   2.0000      -0.422028       -11.4840
  36   2.0000      -0.393486       -10.7073
  37   2.0000      -0.380979       -10.3670
  38   2.0000      -0.310095        -8.4381
  39   2.0000      -0.284255        -7.7350
  40   0.0000      -0.162117        -4.4114
  41   0.0000       0.038457         1.0465
  42   0.0000       0.052052         1.4164
  43   0.0000       0.111475         3.0334
  44   0.0000       0.166733         4.5370

MULLIKEN ATOMIC CHARGES
-----------------------
   0 C :    0.430192
   1 O :   -0.258470
   2 C :    0.106120
   3 F :    0.007568
   4 F :   -0.000830
   5 C :    0.518663
   6 F :   -0.326838
   7 F :   -0.135388
   8 F :   -0.167372
   9 F :   -0.173644
Sum of atomic charges:   -0.0000000

LOEWDIN ATOMIC CHARGES
----------------------
   0 C :    0.257063
   1 O :   -0.210509
   2 C :   -0.028970
   3 F :    0.128229
   4 F :    0.105746
   5 C :    0.125597
   6 F :   -0.229577
   7 F :   -0.023379
   8 F :   -0.058609
   9 F :   -0.065591

  Mayer bond orders larger than 0.100000
B(  0-C ,  1-O ) :   0.1701 B(  0-C ,  2-C ) :   0.7763 B(  0-C ,  3-F ) :   1.3556
B(  0-C ,  4-F ) :   1.3171 B(  0-C ,  6-F ) :   0.2407 B(  1-O ,  2-C ) :   1.9126
B(  2-C ,  5-C ) :   0.8356 B(  2-C ,  6-F ) :   0.6125 B(  5-C ,  7-F ) :   1.1888
B(  5-C ,  8-F ) :   1.1441 B(  5-C ,  9-F ) :   1.1231

Dispersion correction           -0.012730947
FINAL SINGLE POINT ENERGY      -787.580248694676
Dispersion correction             ... done (  0.0 sec)

DIPOLE MOMENT
-------------

Method             : SCF
Type of density    : Electron Density
Multiplicity       :   1
Irrep              :   0
Energy             :  -787.5675177478100295 Eh
Basis              : AO
                                X                 Y                 Z
Electronic contribution:     -2.567758638       1.422234658       0.367967292
Nuclear contribution   :      0.961433375      -1.318862659       0.503455439
                        -----------------------------------------
Total Dipole Moment    :     -1.606325264       0.103371999       0.871422731
                        -----------------------------------------
Magnitude (a.u.)       :      1.830394547
Magnitude (Debye)      :      4.652493200

Rotational constants in cm-1:             0.068557             0.036964             0.032920
Rotational constants in MHz :          2055.301728          1108.166864           986.914023

                             ****ORCA TERMINATED NORMALLY****
TOTAL RUN TIME: 0 days 0 hours 0 minutes 20 seconds 582 msec
