                         Program Version 6.1.0  -  RELEASE   -
|  1> ! B3LYP def2-SVP d3 EnGrad
|  2> %pal nprocs 6 end
|  3> *xyz 0 1
|  4> C   2.22339859146436 0.66601219237016 -1.0979121976617
|  5> C   0.96727480856616 1.02596481369225 -0.36268818378185
|  6> C   0.01131859270039 0.19604153241958 0.09189546179977
|  7> C   0.00083793384667 -1.30434818399327 -0.03112529802773
|  8> O   -1.0783990688904 0.71846708821766 0.73603858882326
|  9> H   2.25972989673342 1.15075287421072 -2.09054020022827
| 10> H   2.3327731440504 -0.41680867491935 -1.25777010011076
| 11> H   3.12121978065684 1.01169194899412 -0.55365499843965
| 12> H   0.87328683301319 -1.69635632353992 -0.56903732297216
| 13> H   -0.90807954443222 -1.64553848192839 -0.55776705021566
| 14> H   -0.02078709893706 -1.77206281077686 0.9696331056129
| 15> H   -1.82356166085339 -0.04924911810893 1.53421038560577
| 16> H   0.79323054036931 2.09064125165548 -0.16978130247189
| 17> H   -2.29439481310714 0.25739840981989 0.45892301294392
| 18> O   -2.90491046983257 -0.40030441395338 1.22678077055007
| 19> H   -3.55293746534795 0.16769789584025 1.67279532857398
| 20> *
| 21>
| 22>                          ****END OF INPUT****

CARTESIAN COORDINATES (ANGSTROEM)
---------------------------------
  C      2.223399    0.666012   -1.097912
  C      0.967275    1.025965   -0.362688
  C      0.011319    0.196042    0.091895
  C      0.000838   -1.304348   -0.031125
  O     -1.078399    0.718467    0.736039
  H      2.259730    1.150753   -2.090540
  H      2.332773   -0.416809   -1.257770
  H      3.121220    1.011692   -0.553655
  H      0.873287   -1.696356   -0.569037
  H     -0.908080   -1.645538   -0.557767
  H     -0.020787   -1.772063    0.969633
  H     -1.823562   -0.049249    1.534210
  H      0.793231    2.090641   -0.169781
  H     -2.294395    0.257398    0.458923
  O     -2.904910   -0.400304    1.226781
  H     -3.552937    0.167698    1.672795

 Total Charge           Charge          ....    0
 Multiplicity           Mult            ....    1
 Number of Electrons    NEL             ....   50
 Basis Dimension        Dim             ....  134

ORBITAL ENERGIES
----------------

  NO   OCC          E(Eh)            E(eV)
   0   2.0000     -19.167497      -521.5741
   1   2.0000     -19.108081      -519.9573
   2   2.0000     -10.216061      -277.9931
   3   2.0000     -10.177382      -276.9407
   4   2.0000     -10.171562      -276.7823
   5   2.0000     -10.153177      -276.2820
   6   2.0000      -1.046346       -28.4725
   7   2.0000      -0.964640       -26.2492
   8   2.0000      -0.758843       -20.6492
   9   2.0000      -0.701107       -19.0781
  10   2.0000      -0.645600       -17.5677
  11   2.0000      -0.583578       -15.8800
  12   2.0000      -0.495237       -13.4761
  13   2.0000      -0.466282       -12.6882
  14   2.0000      -0.450173       -12.2498
  15   2.0000      -0.433784       -11.8039
  16   2.0000      -0.409077       -11.1315
  17   2.0000      -0.391292       -10.6476
  18   2.0000      -0.388646       -10.5756
  19   2.0000      -0.374086       -10.1794
  20   2.0000      -0.357508        -9.7283
  21   2.0000      -0.334772        -9.1096
  22   2.0000      -0.331627        -9.0240
  23   2.0000      -0.270394        -7.3578
  24   2.0000      -0.201061        -5.4712
  25   0.0000       0.033548         0.9129
  26   0.0000       0.044272         1.2047
  27   0.0000       0.075162         2.0453
  28   0.0000       0.101778         2.7695
  29   0.0000       0.112971         3.0741

MULLIKEN ATOMIC CHARGES
-----------------------
   0 C :    0.078571
   1 C :   -0.135175
   2 C :    0.049691
   3 C :    0.058518
   4 O :   -0.462661
   5 H :    0.011880
   6 H :   -0.004436
   7 H :    0.012147
   8 H :    0.000279
   9 H :    0.014118
  10 H :    0.016428
  11 H :    0.233998
  12 H :   -0.021442
  13 H :    0.237247
  14 O :   -0.268647
  15 H :    0.179483
Sum of atomic charges:   -0.0000000

LOEWDIN ATOMIC CHARGES
----------------------
   0 C :   -0.055930
   1 C :   -0.104137
   2 C :    0.013469
   3 C :   -0.068673
   4 O :   -0.219703
   5 H :    0.026751
   6 H :    0.020561
   7 H :    0.026874
   8 H :    0.027109
   9 H :    0.028347
  10 H :    0.029213
  11 H :    0.101724
  12 H :    0.021216
  13 H :    0.103799
  14 O :   -0.041485
  15 H :    0.090868

  Mayer bond orders larger than 0.100000
B(  0-C ,  1-C ) :   1.0777 B(  0-C ,  5-H ) :   0.9509 B(  0-C ,  6-H ) :   0.9588
B(  0-C ,  7-H ) :   0.9506 B(  1-C ,  2-C ) :   1.8637 B(  1-C , 12-H ) :   0.9390
B(  2-C ,  3-C ) :   1.0920 B(  2-C ,  4-O ) :   1.1054 B(  3-C ,  8-H ) :   0.9437
B(  3-C ,  9-H ) :   0.9426 B(  3-C , 10-H ) :   0.9427 B(  4-O , 11-H ) :   0.4007
B(  4-O , 13-H ) :   0.4029 B( 11-H , 14-O ) :   0.5877 B( 13-H , 14-O ) :   0.5839
B( 14-O , 15-H ) :   0.9803

Dispersion correction           -0.018387973
FINAL SINGLE POINT ENERGY      -308.417796091788
Dispersion correction             ... done (  0.0 sec)

DIPOLE MOMENT
-------------

Method             : SCF
Type of density    : Electron Density
Multiplicity       :   1
Irrep              :   0
Energy             :  -308.3994081183370781 Eh
Basis              : AO
                                X                 Y                 Z
Electronic contribution:     -3.912220330       1.880260054       2.260175708
Nuclear contribution   :      3.229011881      -2.010110338      -1.963487285
                        -----------------------------------------
Total Dipole Moment    :     -0.683208449      -0.129850284       0.296688423
                        -----------------------------------------
Magnitude (a.u.)       :      0.756081279
Magnitude (Debye)      :      1.921805883

Rotational constants in cm-1:             0.277958             0.051105             0.044222
Rotational constants in MHz :          8332.973635          1532.078141          1325.736995

                             ****ORCA TERMINATED NORMALLY****
TOTAL RUN TIME: 0 days 0 hours 0 minutes 17 seconds 682 msec
