                         Program Version 6.1.0  -  RELEASE   -
|  1> ! B3LYP def2-SVP d3 EnGrad
|  2> %pal nprocs 6 end
|  3> *xyz 0 2
|  4> C   -1.9385196627998 0.488115293742 -1.13844223101015
|  5> C   -1.50026918531271 0.70140296776181 0.12314808336194
|  6> C   -1.6204883431138 -0.37368210196598 1.22224891351611
|  7> C   -1.72496668761761 -1.808489025946 0.62602838539128
|  8> C   -2.74283191765346 -1.85227110319669 -0.51767734629691
|  9> C   -2.4341689768076 -0.85313881803779 -1.62768857272205
| 10> H   -2.80296955115722 -2.87437885961699 -0.92706245162941
| 11> H   -3.74211701123162 -1.6304165062639 -0.11055585485837
| 12> H   -1.68720750293981 -1.26792482695809 -2.33202270983148
| 13> H   -3.33639893064126 -0.69577176432283 -2.24516333701326
| 14> C   -1.95097555350556 1.5500523001574 -2.212716063099
| 15> H   -1.93607833782896 2.57463428050653 -1.8184862243935
| 16> H   -1.08546138991542 1.44350761670744 -2.89266199173852
| 17> H   -2.85217447528499 1.44761132434222 -2.84022395015286
| 18> C   -0.37304475611397 -2.48088639124148 0.26317405633096
| 19> C   -1.02132686325783 2.08050090646398 0.55954378700724
| 20> C   0.60737904596529 -1.73888765078808 -0.60248540156659
| 21> H   0.12020080332308 -2.7877438712853 1.1948325896417
| 22> C   0.28112976425591 2.60170809779381 -0.09395846462122
| 23> C   1.54891792196064 1.83395814506446 0.14959868423778
| 24> H   0.41957908740275 3.64557771571903 0.26739235764073
| 25> C   -0.45200973426446 -0.33714820649255 2.22725990011645
| 26> H   -0.48964068287548 0.55724365826584 2.86466624663974
| 27> H   -0.51375740013354 -1.20863958688861 2.89870777810304
| 28> C   -2.91135300311028 -0.06027226630308 2.01979681290975
| 29> H   -2.87577287747972 0.96103937134937 2.43069927363895
| 30> H   -3.80903886339723 -0.12842618286534 1.38900169293953
| 31> H   -3.02577199082923 -0.75690444302084 2.8673932454176
| 32> H   -1.80987658364782 2.82146313872675 0.33810395232695
| 33> H   -0.90482900746844 2.11006934557356 1.65101808837137
| 34> H   0.12546739501705 2.68672664287069 -1.17820334477487
| 35> C   2.47748951853384 1.66587491728222 -1.01940890923058
| 36> H   3.09596580336638 2.59159838677075 -1.0935930540389
| 37> C   3.44278914209411 0.47066961513644 -1.0255964276963
| 38> H   4.23406456209294 0.6794977574106 -1.76517756785645
| 39> H   3.96390482579325 0.39166249591052 -0.05672226171352
| 40> C   2.79657804121094 -0.87516359163568 -1.4022871377089
| 41> H   2.22129449117573 -0.73826766932161 -2.33325163347413
| 42> H   3.61360487501456 -1.58160423127311 -1.64427938187404
| 43> C   1.91539563605227 -1.52975221351529 -0.36064053568582
| 44> H   1.88673607460974 1.64158132228856 -1.9519773251709
| 45> H   0.22523029079236 -1.38110921701245 -1.56236151210836
| 46> C   2.1460245478616 1.87866311731423 1.52171353913227
| 47> H   2.84216841018636 2.7413653677644 1.61861173175409
| 48> H   1.3828269698006 1.99272764119282 2.30484225359753
| 49> H   2.73665453923861 0.98056307435962 1.76337893559286
| 50> C   2.63711997143572 -1.97867369774344 0.88469625869377
| 51> H   3.46759276030668 -2.65794879143907 0.62202225893745
| 52> H   3.0929320783165 -1.12481123551282 1.41316348156919
| 53> H   1.9893444864251 -2.49981833639474 1.60068380139048
| 54> H   -0.63098944585678 -3.42681507557295 -0.25135935611565
| 55> H   -2.13423653338056 -2.44175100815438 1.43350002792851
| 56> H   0.5202742253932 -0.35404882770591 1.72419391019443
| 57> *
| 58>
| 59>                          ****END OF INPUT****

CARTESIAN COORDINATES (ANGSTROEM)
---------------------------------
  C     -1.938520    0.488115   -1.138442
  C     -1.500269    0.701403    0.123148
  C     -1.620488   -0.373682    1.222249
  C     -1.724967   -1.808489    0.626028
  C     -2.742832   -1.852271   -0.517677
  C     -2.434169   -0.853139   -1.627689
  H     -2.802970   -2.874379   -0.927062
  H     -3.742117   -1.630417   -0.110556
  H     -1.687208   -1.267925   -2.332023
  H     -3.336399   -0.695772   -2.245163
  C     -1.950976    1.550052   -2.212716
  H     -1.936078    2.574634   -1.818486
  H     -1.085461    1.443508   -2.892662
  H     -2.852174    1.447611   -2.840224
  C     -0.373045   -2.480886    0.263174
  C     -1.021327    2.080501    0.559544
  C      0.607379   -1.738888   -0.602485
  H      0.120201   -2.787744    1.194833
  C      0.281130    2.601708   -0.093958
  C      1.548918    1.833958    0.149599
  H      0.419579    3.645578    0.267392
  C     -0.452010   -0.337148    2.227260
  H     -0.489641    0.557244    2.864666
  H     -0.513757   -1.208640    2.898708
  C     -2.911353   -0.060272    2.019797
  H     -2.875773    0.961039    2.430699
  H     -3.809039   -0.128426    1.389002
  H     -3.025772   -0.756904    2.867393
  H     -1.809877    2.821463    0.338104
  H     -0.904829    2.110069    1.651018
  H      0.125467    2.686727   -1.178203
  C      2.477490    1.665875   -1.019409
  H      3.095966    2.591598   -1.093593
  C      3.442789    0.470670   -1.025596
  H      4.234065    0.679498   -1.765178
  H      3.963905    0.391662   -0.056722
  C      2.796578   -0.875164   -1.402287
  H      2.221294   -0.738268   -2.333252
  H      3.613605   -1.581604   -1.644279
  C      1.915396   -1.529752   -0.360641
  H      1.886736    1.641581   -1.951977
  H      0.225230   -1.381109   -1.562362
  C      2.146025    1.878663    1.521714
  H      2.842168    2.741365    1.618612
  H      1.382827    1.992728    2.304842
  H      2.736655    0.980563    1.763379
  C      2.637120   -1.978674    0.884696
  H      3.467593   -2.657949    0.622022
  H      3.092932   -1.124811    1.413163
  H      1.989344   -2.499818    1.600684
  H     -0.630989   -3.426815   -0.251359
  H     -2.134237   -2.441751    1.433500
  H      0.520274   -0.354049    1.724194

 Total Charge           Charge          ....    0
 Multiplicity           Mult            ....    2
 Number of Electrons    NEL             ....  153
 Basis Dimension        Dim             ....  445

ORBITAL ENERGIES
----------------
                 SPIN UP ORBITALS
  NO   OCC          E(Eh)            E(eV)
   0   1.0000     -10.186566      -277.1905
   1   1.0000     -10.176992      -276.9300
   2   1.0000     -10.176682      -276.9216
   3   1.0000     -10.176446      -276.9152
   4   1.0000     -10.175463      -276.8884
   5   1.0000     -10.175134      -276.8795
   6   1.0000     -10.175107      -276.8787
   7   1.0000     -10.174804      -276.8705
   8   1.0000     -10.174667      -276.8668
   9   1.0000     -10.173718      -276.8409
  10   1.0000     -10.173642      -276.8389
  11   1.0000     -10.173638      -276.8388
  12   1.0000     -10.173374      -276.8316
  13   1.0000     -10.172731      -276.8141
  14   1.0000     -10.170509      -276.7536
  15   1.0000     -10.169893      -276.7369
  16   1.0000     -10.169425      -276.7241
  17   1.0000     -10.167765      -276.6789
  18   1.0000     -10.165251      -276.6106
  19   1.0000     -10.162544      -276.5369
  20   1.0000      -0.838887       -22.8273
  21   1.0000      -0.808927       -22.0120
  22   1.0000      -0.798322       -21.7234
  23   1.0000      -0.772266       -21.0144
  24   1.0000      -0.759412       -20.6646
  25   1.0000      -0.748247       -20.3608
  26   1.0000      -0.709136       -19.2966
  27   1.0000      -0.705760       -19.2047
  28   1.0000      -0.672013       -18.2864
  29   1.0000      -0.665374       -18.1057
  30   1.0000      -0.665040       -18.0967
  31   1.0000      -0.663178       -18.0460
  32   1.0000      -0.627887       -17.0857
  33   1.0000      -0.614149       -16.7119
  34   1.0000      -0.571555       -15.5528
  35   1.0000      -0.564122       -15.3505
  36   1.0000      -0.544207       -14.8086
  37   1.0000      -0.515383       -14.0243
  38   1.0000      -0.501603       -13.6493
  39   1.0000      -0.479263       -13.0414
  40   1.0000      -0.470847       -12.8124
  41   1.0000      -0.466334       -12.6896
  42   1.0000      -0.458335       -12.4719
  43   1.0000      -0.449792       -12.2395
  44   1.0000      -0.436872       -11.8879
  45   1.0000      -0.434889       -11.8339
  46   1.0000      -0.427617       -11.6360
  47   1.0000      -0.423352       -11.5200
  48   1.0000      -0.417240       -11.3537
  49   1.0000      -0.407146       -11.0790
  50   1.0000      -0.404700       -11.0124
  51   1.0000      -0.399914       -10.8822
  52   1.0000      -0.394698       -10.7403
  53   1.0000      -0.389769       -10.6062
  54   1.0000      -0.388056       -10.5595
  55   1.0000      -0.384087       -10.4515
  56   1.0000      -0.377185       -10.2637
  57   1.0000      -0.371156       -10.0997
  58   1.0000      -0.366630        -9.9765
  59   1.0000      -0.364186        -9.9100
  60   1.0000      -0.358916        -9.7666
  61   1.0000      -0.353840        -9.6285
  62   1.0000      -0.349278        -9.5043
  63   1.0000      -0.341757        -9.2997
  64   1.0000      -0.338479        -9.2105
  65   1.0000      -0.336155        -9.1473
  66   1.0000      -0.334598        -9.1049
  67   1.0000      -0.328305        -8.9336
  68   1.0000      -0.318899        -8.6777
  69   1.0000      -0.315977        -8.5982
  70   1.0000      -0.304998        -8.2994
  71   1.0000      -0.301248        -8.1974
  72   1.0000      -0.291867        -7.9421
  73   1.0000      -0.279463        -7.6046
  74   1.0000      -0.230652        -6.2764
  75   1.0000      -0.211983        -5.7684
  76   1.0000      -0.166019        -4.5176
  77   0.0000       0.020351         0.5538
  78   0.0000       0.028277         0.7694
  79   0.0000       0.047935         1.3044
  80   0.0000       0.058124         1.5816
  81   0.0000       0.062043         1.6883

                 SPIN DOWN ORBITALS
  NO   OCC          E(Eh)            E(eV)
   0   1.0000     -10.186546      -277.1900
   1   1.0000     -10.176420      -276.9145
   2   1.0000     -10.176230      -276.9093
   3   1.0000     -10.175542      -276.8906
   4   1.0000     -10.175485      -276.8890
   5   1.0000     -10.175123      -276.8792
   6   1.0000     -10.174785      -276.8700
   7   1.0000     -10.174575      -276.8643
   8   1.0000     -10.174287      -276.8564
   9   1.0000     -10.173645      -276.8390
  10   1.0000     -10.173641      -276.8388
  11   1.0000     -10.173553      -276.8364
  12   1.0000     -10.173393      -276.8321
  13   1.0000     -10.170522      -276.7540
  14   1.0000     -10.169894      -276.7369
  15   1.0000     -10.169431      -276.7243
  16   1.0000     -10.167762      -276.6789
  17   1.0000     -10.164931      -276.6018
  18   1.0000     -10.162847      -276.5451
  19   1.0000     -10.162504      -276.5358
  20   1.0000      -0.838500       -22.8168
  21   1.0000      -0.805274       -21.9126
  22   1.0000      -0.792141       -21.5553
  23   1.0000      -0.771435       -20.9918
  24   1.0000      -0.757016       -20.5994
  25   1.0000      -0.746202       -20.3052
  26   1.0000      -0.706339       -19.2205
  27   1.0000      -0.705251       -19.1908
  28   1.0000      -0.671183       -18.2638
  29   1.0000      -0.665005       -18.0957
  30   1.0000      -0.664534       -18.0829
  31   1.0000      -0.662334       -18.0230
  32   1.0000      -0.625675       -17.0255
  33   1.0000      -0.613173       -16.6853
  34   1.0000      -0.569918       -15.5083
  35   1.0000      -0.563690       -15.3388
  36   1.0000      -0.542953       -14.7745
  37   1.0000      -0.507086       -13.7985
  38   1.0000      -0.497949       -13.5499
  39   1.0000      -0.478410       -13.0182
  40   1.0000      -0.469275       -12.7696
  41   1.0000      -0.464467       -12.6388
  42   1.0000      -0.455926       -12.4064
  43   1.0000      -0.446497       -12.1498
  44   1.0000      -0.435110       -11.8400
  45   1.0000      -0.433029       -11.7833
  46   1.0000      -0.426144       -11.5960
  47   1.0000      -0.422128       -11.4867
  48   1.0000      -0.415678       -11.3112
  49   1.0000      -0.404896       -11.0178
  50   1.0000      -0.401781       -10.9330
  51   1.0000      -0.397397       -10.8137
  52   1.0000      -0.393362       -10.7039
  53   1.0000      -0.388370       -10.5681
  54   1.0000      -0.386490       -10.5169
  55   1.0000      -0.382719       -10.4143
  56   1.0000      -0.376442       -10.2435
  57   1.0000      -0.370271       -10.0756
  58   1.0000      -0.365802        -9.9540
  59   1.0000      -0.363519        -9.8919
  60   1.0000      -0.357097        -9.7171
  61   1.0000      -0.353565        -9.6210
  62   1.0000      -0.348087        -9.4719
  63   1.0000      -0.340905        -9.2765
  64   1.0000      -0.336648        -9.1607
  65   1.0000      -0.334751        -9.1090
  66   1.0000      -0.333556        -9.0765
  67   1.0000      -0.326801        -8.8927
  68   1.0000      -0.317400        -8.6369
  69   1.0000      -0.314231        -8.5507
  70   1.0000      -0.303640        -8.2625
  71   1.0000      -0.299877        -8.1601
  72   1.0000      -0.291708        -7.9378
  73   1.0000      -0.278741        -7.5849
  74   1.0000      -0.228954        -6.2301
  75   1.0000      -0.210641        -5.7318
  76   0.0000      -0.031435        -0.8554
  77   0.0000       0.020599         0.5605
  78   0.0000       0.030159         0.8207
  79   0.0000       0.048450         1.3184
  80   0.0000       0.058168         1.5828

MULLIKEN ATOMIC CHARGES AND SPIN POPULATIONS
--------------------------------------------
   0 C :   -0.245496   -0.000522
   1 C :   -0.015648    0.002007
   2 C :   -0.245215    0.000847
   3 C :   -0.032862    0.000849
   4 C :    0.088277   -0.000098
   5 C :    0.098790    0.000094
   6 H :   -0.023294    0.000021
   7 H :   -0.010987    0.000006
   8 H :   -0.002803   -0.000063
   9 H :   -0.014075   -0.000029
  10 C :    0.093165    0.000095
  11 H :    0.012491    0.000030
  12 H :    0.016857   -0.000065
  13 H :   -0.003082    0.000010
  14 C :    0.166581   -0.001069
  15 C :    0.092912    0.023233
  16 C :   -0.070326    0.018215
  17 H :   -0.024129    0.000027
  18 C :    0.099140   -0.082480
  19 C :   -0.206249    0.971225
  20 H :   -0.015490    0.055772
  21 C :    0.106361    0.001481
  22 H :   -0.005549   -0.000034
  23 H :   -0.011511    0.000254
  24 C :    0.115510    0.000191
  25 H :   -0.007455    0.000059
  26 H :   -0.002786    0.000030
  27 H :   -0.005223   -0.000007
  28 H :   -0.004303    0.002898
  29 H :   -0.023405   -0.001135
  30 H :   -0.029350    0.002033
  31 C :    0.076546   -0.083035
  32 H :   -0.007554    0.070298
  33 C :    0.023252    0.014100
  34 H :   -0.014339   -0.000067
  35 H :   -0.012459   -0.000869
  36 C :    0.102640    0.002190
  37 H :   -0.023125    0.000294
  38 H :   -0.007605   -0.000316
  39 C :   -0.158004   -0.008962
  40 H :   -0.015466    0.004485
  41 H :   -0.035646   -0.000585
  42 C :    0.074729   -0.080962
  43 H :    0.000030    0.065164
  44 H :    0.001572    0.004011
  45 H :    0.006045    0.019367
  46 C :    0.106405    0.001355
  47 H :    0.007019   -0.000239
  48 H :    0.005550   -0.000719
  49 H :    0.000125   -0.000007
  50 H :   -0.011016    0.000857
  51 H :   -0.033274    0.000209
  52 H :    0.023726   -0.000442
Sum of atomic charges         :   -0.0000000

LOEWDIN ATOMIC CHARGES AND SPIN POPULATIONS
-------------------------------------------
   0 C :   -0.051179   -0.000747
   1 C :   -0.026554    0.000673
   2 C :   -0.035812    0.000775
   3 C :   -0.015825    0.000886
   4 C :   -0.024348   -0.000001
   5 C :   -0.028677   -0.000014
   6 H :    0.017212    0.000021
   7 H :    0.018156    0.000011
   8 H :    0.020434   -0.000058
   9 H :    0.022588   -0.000025
  10 C :   -0.049139    0.000067
  11 H :    0.024147    0.000044
  12 H :    0.029062   -0.000042
  13 H :    0.023915    0.000012
  14 C :   -0.027223   -0.000150
  15 C :   -0.023902    0.026474
  16 C :   -0.046104    0.015104
  17 H :    0.019191    0.000014
  18 C :   -0.029271   -0.010674
  19 C :   -0.029626    0.802872
  20 H :    0.021347    0.043495
  21 C :   -0.039121    0.001382
  22 H :    0.014415    0.000001
  23 H :    0.018819    0.000234
  24 C :   -0.034836    0.000131
  25 H :    0.018684    0.000092
  26 H :    0.016587    0.000021
  27 H :    0.016706    0.000002
  28 H :    0.025386    0.001637
  29 H :    0.016237   -0.000195
  30 H :    0.018027    0.000644
  31 C :   -0.036387   -0.011320
  32 H :    0.023347    0.055300
  33 C :   -0.028965    0.014936
  34 H :    0.020656   -0.000193
  35 H :    0.014831   -0.000288
  36 C :   -0.020633    0.000186
  37 H :    0.019488    0.000093
  38 H :    0.023427   -0.000123
  39 C :   -0.041357   -0.003380
  40 H :    0.019713    0.003484
  41 H :    0.016683    0.000216
  42 C :   -0.060838   -0.012852
  43 H :    0.024365    0.050916
  44 H :    0.023290    0.002842
  45 H :    0.022097    0.015783
  46 C :   -0.050869    0.000236
  47 H :    0.029639   -0.000206
  48 H :    0.024305   -0.000205
  49 H :    0.023036   -0.000002
  50 H :    0.028656    0.000747
  51 H :    0.018478    0.000151
  52 H :    0.027740    0.000995

  Mayer bond orders larger than 0.100000
B(  0-C ,  1-C ) :   1.8767 B(  0-C ,  5-C ) :   1.0402 B(  0-C , 10-C ) :   1.1047
B(  1-C ,  2-C ) :   0.9476 B(  1-C , 15-C ) :   1.0559 B(  2-C ,  3-C ) :   0.9930
B(  2-C , 21-C ) :   1.0725 B(  2-C , 24-C ) :   1.0376 B(  3-C ,  4-C ) :   1.0656
B(  3-C , 14-C ) :   1.0547 B(  3-C , 51-H ) :   0.8886 B(  4-C ,  5-C ) :   1.1007
B(  4-C ,  6-H ) :   0.9157 B(  4-C ,  7-H ) :   0.9310 B(  5-C ,  8-H ) :   0.9080
B(  5-C ,  9-H ) :   0.9105 B( 10-C , 11-H ) :   0.9398 B( 10-C , 12-H ) :   0.9441
B( 10-C , 13-H ) :   0.9418 B( 14-C , 16-C ) :   1.0659 B( 14-C , 17-H ) :   0.9064
B( 14-C , 50-H ) :   0.8968 B( 15-C , 18-C ) :   1.0863 B( 15-C , 28-H ) :   0.9058
B( 15-C , 29-H ) :   0.9144 B( 16-C , 39-C ) :   1.8755 B( 16-C , 41-H ) :   0.9396
B( 18-C , 19-C ) :   1.0709 B( 18-C , 20-H ) :   0.8978 B( 18-C , 30-H ) :   0.9206
B( 19-C , 31-C ) :   1.0817 B( 19-C , 42-C ) :   1.0888 B( 21-C , 22-H ) :   0.9455
B( 21-C , 23-H ) :   0.9416 B( 21-C , 52-H ) :   0.9428 B( 24-C , 25-H ) :   0.9534
B( 24-C , 26-H ) :   0.9580 B( 24-C , 27-H ) :   0.9553 B( 31-C , 32-H ) :   0.9002
B( 31-C , 33-C ) :   1.0812 B( 31-C , 40-H ) :   0.9218 B( 33-C , 34-H ) :   0.9225
B( 33-C , 35-H ) :   0.9373 B( 33-C , 36-C ) :   1.0814 B( 36-C , 37-H ) :   0.9199
B( 36-C , 38-H ) :   0.9182 B( 36-C , 39-C ) :   1.0614 B( 39-C , 46-C ) :   1.0834
B( 42-C , 43-H ) :   0.9233 B( 42-C , 44-H ) :   0.9546 B( 42-C , 45-H ) :   0.9501
B( 46-C , 47-H ) :   0.9376 B( 46-C , 48-H ) :   0.9407 B( 46-C , 49-H ) :   0.9453

Dispersion correction           -0.119857832
FINAL SINGLE POINT ENERGY      -780.921974741868
Dispersion correction             ... done (  0.0 sec)

DIPOLE MOMENT
-------------

Method             : SCF
Type of density    : Electron Density
Multiplicity       :   2
Irrep              :   0
Energy             :  -780.8021169101389205 Eh
Basis              : AO
                                X                 Y                 Z
Electronic contribution:     -2.919502418      -2.199912046      -3.337743147
Nuclear contribution   :      3.007664006       2.249065386       3.333512022
                        -----------------------------------------
Total Dipole Moment    :      0.088161587       0.049153340      -0.004231126
                        -----------------------------------------
Magnitude (a.u.)       :      0.101026822
Magnitude (Debye)      :      0.256789773

Rotational constants in cm-1:             0.014901             0.010180             0.008857
Rotational constants in MHz :           446.712830           305.176762           265.525234

                             ****ORCA TERMINATED NORMALLY****
TOTAL RUN TIME: 0 days 0 hours 2 minutes 3 seconds 579 msec
