                         Program Version 6.1.0  -  RELEASE   -
|  1> ! B3LYP def2-SVP d3 EnGrad
|  2> %pal nprocs 6 end
|  3> *xyz 0 1
|  4> H   0.47164250775183 0.98483688472378 -0.37845075053848
|  5> C   0.2317174975929 1.08926104491854 0.68266283054098
|  6> C   0.64247159141133 0.18229232985106 1.57557931604723
|  7> H   -0.34717125179292 1.95329087717827 1.01128667217194
|  8> H   0.40379761205582 0.29397433113266 2.64326111878959
|  9> O   1.36249694175728 -0.9173861675224 1.25318860573391
| 10> H   1.5529879634849 -1.42063532382252 2.06663753885431
| 11> O   1.20141606890202 -2.67303707242048 3.36248898990746
| 12> C   0.36408043318531 -3.38807141440404 2.8669016209782
| 13> H   -0.0501009569468 -4.26684813605597 3.4155356209001
| 14> H   -0.0312124074017 -3.20289535357886 1.8410094366147
| 15> *
| 16>
| 17>                          ****END OF INPUT****

CARTESIAN COORDINATES (ANGSTROEM)
---------------------------------
  H      0.471643    0.984837   -0.378451
  C      0.231717    1.089261    0.682663
  C      0.642472    0.182292    1.575579
  H     -0.347171    1.953291    1.011287
  H      0.403798    0.293974    2.643261
  O      1.362497   -0.917386    1.253189
  H      1.552988   -1.420635    2.066638
  O      1.201416   -2.673037    3.362489
  C      0.364080   -3.388071    2.866902
  H     -0.050101   -4.266848    3.415536
  H     -0.031212   -3.202895    1.841009

 Total Charge           Charge          ....    0
 Multiplicity           Mult            ....    1
 Number of Electrons    NEL             ....   40
 Basis Dimension        Dim             ....  100

ORBITAL ENERGIES
----------------

  NO   OCC          E(Eh)            E(eV)
   0   2.0000     -19.185938      -522.0759
   1   2.0000     -19.137036      -520.7452
   2   2.0000     -10.314534      -280.6727
   3   2.0000     -10.225462      -278.2490
   4   2.0000     -10.151603      -276.2392
   5   2.0000      -1.083038       -29.4710
   6   2.0000      -1.022338       -27.8192
   7   2.0000      -0.723577       -19.6895
   8   2.0000      -0.649882       -17.6842
   9   2.0000      -0.566178       -15.4065
  10   2.0000      -0.534250       -14.5377
  11   2.0000      -0.512700       -13.9513
  12   2.0000      -0.481407       -13.0997
  13   2.0000      -0.434182       -11.8147
  14   2.0000      -0.423745       -11.5307
  15   2.0000      -0.384412       -10.4604
  16   2.0000      -0.371788       -10.1169
  17   2.0000      -0.334204        -9.0942
  18   2.0000      -0.299737        -8.1563
  19   2.0000      -0.213616        -5.8128
  20   0.0000      -0.073416        -1.9978
  21   0.0000       0.047394         1.2897
  22   0.0000       0.060468         1.6454
  23   0.0000       0.084599         2.3020
  24   0.0000       0.116562         3.1718

MULLIKEN ATOMIC CHARGES
-----------------------
   0 H :    0.013261
   1 C :   -0.078554
   2 C :    0.070907
   3 H :    0.011659
   4 H :   -0.008503
   5 O :   -0.238542
   6 H :    0.178293
   7 O :   -0.229039
   8 C :    0.180871
   9 H :    0.048018
  10 H :    0.051627
Sum of atomic charges:    0.0000000

LOEWDIN ATOMIC CHARGES
----------------------
   0 H :    0.022841
   1 C :   -0.146425
   2 C :    0.042494
   3 H :    0.024133
   4 H :    0.008059
   5 O :   -0.076152
   6 H :    0.054508
   7 O :   -0.106872
   8 C :    0.165953
   9 H :    0.007125
  10 H :    0.004336

  Mayer bond orders larger than 0.100000
B(  0-H ,  1-C ) :   0.9530 B(  1-C ,  2-C ) :   1.9302 B(  1-C ,  3-H ) :   0.9505
B(  2-C ,  4-H ) :   0.9557 B(  2-C ,  5-O ) :   1.1682 B(  5-O ,  6-H ) :   0.9170
B(  6-H ,  7-O ) :   0.1186 B(  7-O ,  8-C ) :   2.0413 B(  8-C ,  9-H ) :   0.9255
B(  8-C , 10-H ) :   0.9203

Dispersion correction           -0.009812375
FINAL SINGLE POINT ENERGY      -267.987140663745
Dispersion correction             ... done (  0.1 sec)

DIPOLE MOMENT
-------------

Method             : SCF
Type of density    : Electron Density
Multiplicity       :   1
Irrep              :   0
Energy             :  -267.9773282888800736 Eh
Basis              : AO
                                X                 Y                 Z
Electronic contribution:      1.877754397      -2.487714796       1.689310434
Nuclear contribution   :     -2.509236749       1.403856780      -1.146927943
                        -----------------------------------------
Total Dipole Moment    :     -0.631482353      -1.083858016       0.542382491
                        -----------------------------------------
Magnitude (a.u.)       :      1.366637087
Magnitude (Debye)      :      3.473715413

Rotational constants in cm-1:             0.542624             0.057975             0.057516
Rotational constants in MHz :         16267.469366          1738.038434          1724.289149

                             ****ORCA TERMINATED NORMALLY****
TOTAL RUN TIME: 0 days 0 hours 0 minutes 10 seconds 223 msec
