                         Program Version 6.1.0  -  RELEASE   -
|  1> ! B3LYP def2-SVP d3 EnGrad
|  2> %pal nprocs 6 end
|  3> *xyz 0 1
|  4> H   -0.97879480045866 1.26535357572483 -1.67090091668133
|  5> C   -0.51651246285228 1.62704122287691 -0.75126578268399
|  6> C   -0.03804042537777 0.79180438991485 0.16911739144323
|  7> H   -0.54455620800957 2.69561535239431 -0.5262304079763
|  8> H   0.46491398513605 1.08527219913717 1.09099349237476
|  9> O   0.73892572317102 -0.57603816728257 -0.44965454326389
| 10> H   1.7069278953593 -0.54511499827733 -0.31593428328703
| 11> O   -1.02008922519089 -0.63934752657578 0.78420522723928
| 12> C   -0.08732004284751 -1.50814964645101 0.49680895471402
| 13> H   0.64250765707115 -1.8085653302113 1.29254178628992
| 14> H   -0.36796209600083 -2.38787107125008 -0.11968091816868
| 15> *
| 16>
| 17>                          ****END OF INPUT****

CARTESIAN COORDINATES (ANGSTROEM)
---------------------------------
  H     -0.978795    1.265354   -1.670901
  C     -0.516512    1.627041   -0.751266
  C     -0.038040    0.791804    0.169117
  H     -0.544556    2.695615   -0.526230
  H      0.464914    1.085272    1.090993
  O      0.738926   -0.576038   -0.449655
  H      1.706928   -0.545115   -0.315934
  O     -1.020089   -0.639348    0.784205
  C     -0.087320   -1.508150    0.496809
  H      0.642508   -1.808565    1.292542
  H     -0.367962   -2.387871   -0.119681

 Total Charge           Charge          ....    0
 Multiplicity           Mult            ....    1
 Number of Electrons    NEL             ....   40
 Basis Dimension        Dim             ....  100

ORBITAL ENERGIES
----------------

  NO   OCC          E(Eh)            E(eV)
   0   2.0000     -19.210651      -522.7484
   1   2.0000     -19.088141      -519.4147
   2   2.0000     -10.287423      -279.9350
   3   2.0000     -10.270736      -279.4809
   4   2.0000     -10.157111      -276.3890
   5   2.0000      -1.079512       -29.3750
   6   2.0000      -0.960552       -26.1379
   7   2.0000      -0.751046       -20.4370
   8   2.0000      -0.643536       -17.5115
   9   2.0000      -0.590781       -16.0760
  10   2.0000      -0.551670       -15.0117
  11   2.0000      -0.481968       -13.1150
  12   2.0000      -0.466984       -12.7073
  13   2.0000      -0.435625       -11.8540
  14   2.0000      -0.410300       -11.1648
  15   2.0000      -0.388090       -10.5605
  16   2.0000      -0.363022        -9.8783
  17   2.0000      -0.307855        -8.3772
  18   2.0000      -0.236715        -6.4414
  19   2.0000      -0.212194        -5.7741
  20   0.0000       0.011680         0.3178
  21   0.0000       0.014403         0.3919
  22   0.0000       0.058557         1.5934
  23   0.0000       0.085233         2.3193
  24   0.0000       0.096769         2.6332

MULLIKEN ATOMIC CHARGES
-----------------------
   0 H :    0.016150
   1 C :   -0.066124
   2 C :    0.158235
   3 H :    0.024121
   4 H :    0.034229
   5 O :   -0.275766
   6 H :    0.182707
   7 O :   -0.421327
   8 C :    0.361789
   9 H :   -0.025726
  10 H :    0.011712
Sum of atomic charges:    0.0000000

LOEWDIN ATOMIC CHARGES
----------------------
   0 H :    0.028870
   1 C :   -0.172516
   2 C :    0.181384
   3 H :    0.034123
   4 H :    0.023777
   5 O :   -0.026254
   6 H :    0.092288
   7 O :   -0.300928
   8 C :    0.165314
   9 H :   -0.024480
  10 H :   -0.001578

  Mayer bond orders larger than 0.100000
B(  0-H ,  1-C ) :   0.9345 B(  1-C ,  2-C ) :   1.9326 B(  1-C ,  3-H ) :   0.9409
B(  2-C ,  4-H ) :   0.9487 B(  2-C ,  5-O ) :   0.5511 B(  2-C ,  7-O ) :   0.5200
B(  5-O ,  6-H ) :   0.9330 B(  5-O ,  8-C ) :   0.6907 B(  7-O ,  8-C ) :   1.3349
B(  8-C ,  9-H ) :   0.9166 B(  8-C , 10-H ) :   0.9366

Dispersion correction           -0.011705830
FINAL SINGLE POINT ENERGY      -267.880253050535
Dispersion correction             ... done (  0.0 sec)

DIPOLE MOMENT
-------------

Method             : SCF
Type of density    : Electron Density
Multiplicity       :   1
Irrep              :   0
Energy             :  -267.8685472202656683 Eh
Basis              : AO
                                X                 Y                 Z
Electronic contribution:     -0.254729336      -1.184673348       0.482860356
Nuclear contribution   :      1.723257968       0.894206180      -0.540227626
                        -----------------------------------------
Total Dipole Moment    :      1.468528632      -0.290467168      -0.057367271
                        -----------------------------------------
Magnitude (a.u.)       :      1.498078276
Magnitude (Debye)      :      3.807812367

Rotational constants in cm-1:             0.341350             0.142534             0.113581
Rotational constants in MHz :         10233.409484          4273.061941          3405.065395

                             ****ORCA TERMINATED NORMALLY****
TOTAL RUN TIME: 0 days 0 hours 0 minutes 12 seconds 657 msec
