                         Program Version 6.1.0  -  RELEASE   -
|  1> ! B3LYP def2-SVP d3 EnGrad
|  2> %pal nprocs 6 end
|  3> *xyz 0 1
|  4> C   0.88039201307606 0.08937938566973 -0.04338214343504
|  5> O   1.48365253449966 0.20991182104584 -1.13301925408292
|  6> N   -1.30714504604656 -0.14127767147728 0.29922423376462
|  7> H   -1.56647785775235 0.66313961859851 -0.29157532764497
|  8> H   0.35847655977268 -0.9143572707653 0.2319097873993
|  9> H   1.38775901720213 0.0806905487211 0.96458726674686
| 10> H   -1.41453275403351 -0.92345854690232 -0.36426420032635
| 11> H   0.17787553328188 0.93597211510972 0.3365196375785
| 12> *
| 13>
| 14>                          ****END OF INPUT****

CARTESIAN COORDINATES (ANGSTROEM)
---------------------------------
  C      0.880392    0.089379   -0.043382
  O      1.483653    0.209912   -1.133019
  N     -1.307145   -0.141278    0.299224
  H     -1.566478    0.663140   -0.291575
  H      0.358477   -0.914357    0.231910
  H      1.387759    0.080691    0.964587
  H     -1.414533   -0.923459   -0.364264
  H      0.177876    0.935972    0.336520

 Total Charge           Charge          ....    0
 Multiplicity           Mult            ....    1
 Number of Electrons    NEL             ....   26
 Basis Dimension        Dim             ....   67

ORBITAL ENERGIES
----------------

  NO   OCC          E(Eh)            E(eV)
   0   2.0000     -19.104201      -519.8517
   1   2.0000     -14.368947      -390.9989
   2   2.0000     -10.270467      -279.4736
   3   2.0000      -0.995346       -27.0847
   4   2.0000      -0.846299       -23.0290
   5   2.0000      -0.670893       -18.2559
   6   2.0000      -0.505357       -13.7515
   7   2.0000      -0.449985       -12.2447
   8   2.0000      -0.439347       -11.9552
   9   2.0000      -0.417254       -11.3541
  10   2.0000      -0.331253        -9.0138
  11   2.0000      -0.256076        -6.9682
  12   2.0000      -0.238100        -6.4790
  13   0.0000      -0.133931        -3.6444
  14   0.0000       0.027733         0.7547
  15   0.0000       0.093022         2.5313
  16   0.0000       0.111416         3.0318
  17   0.0000       0.123731         3.3669

MULLIKEN ATOMIC CHARGES
-----------------------
   0 C :    0.127474
   1 O :   -0.304915
   2 N :   -0.251866
   3 H :    0.117285
   4 H :    0.046698
   5 H :    0.099924
   6 H :    0.117168
   7 H :    0.048232
Sum of atomic charges:    0.0000000

LOEWDIN ATOMIC CHARGES
----------------------
   0 C :    0.017472
   1 O :   -0.240024
   2 N :   -0.116291
   3 H :    0.059042
   4 H :    0.056009
   5 H :    0.108583
   6 H :    0.058926
   7 H :    0.056283

  Mayer bond orders larger than 0.100000
B(  0-C ,  1-O ) :   1.6332 B(  0-C ,  2-N ) :   0.2067 B(  0-C ,  4-H ) :   0.7356
B(  0-C ,  5-H ) :   0.7910 B(  0-C ,  7-H ) :   0.7362 B(  1-O ,  2-N ) :   0.3838
B(  2-N ,  3-H ) :   0.9601 B(  2-N ,  4-H ) :   0.1534 B(  2-N ,  5-H ) :   0.1378
B(  2-N ,  6-H ) :   0.9602 B(  2-N ,  7-H ) :   0.1535

Dispersion correction           -0.006154917
FINAL SINGLE POINT ENERGY      -170.666093473993
Dispersion correction             ... done (  0.1 sec)

DIPOLE MOMENT
-------------

Method             : SCF
Type of density    : Electron Density
Multiplicity       :   1
Irrep              :   0
Energy             :  -170.6599385565897364 Eh
Basis              : AO
                                X                 Y                 Z
Electronic contribution:      1.871424501       0.281102140      -1.652046743
Nuclear contribution   :     -2.472233838      -0.375561218       2.166699095
                        -----------------------------------------
Total Dipole Moment    :     -0.600809337      -0.094459078       0.514652352
                        -----------------------------------------
Magnitude (a.u.)       :      0.796719160
Magnitude (Debye)      :      2.025099168

Rotational constants in cm-1:             1.489572             0.197732             0.186249
Rotational constants in MHz :         44656.232827          5927.862241          5583.614925

                             ****ORCA TERMINATED NORMALLY****
TOTAL RUN TIME: 0 days 0 hours 0 minutes 7 seconds 507 msec
