                         Program Version 6.1.0  -  RELEASE   -
|  1> ! B3LYP def2-SVP d3 EnGrad
|  2> %pal nprocs 6 end
|  3> *xyz 0 1
|  4> C   1.81703943983849 0.43398277006388 0.36431805898164
|  5> C   0.4105153741767 0.88608112734043 -0.0540206678148
|  6> H   2.21088912838199 -0.35506798434654 -0.29822955161491
|  7> H   1.8054735491964 0.02594642998756 1.3871343711882
|  8> H   2.52849351010562 1.27404032070686 0.3339882400892
|  9> C   -0.59801126186085 -0.23395192455248 -0.06597921003441
| 10> O   -0.34137699736036 -1.25313633783145 -0.94055481952123
| 11> C   -1.67681032188341 -0.29207686956737 0.72675530587479
| 12> H   -1.88097951866295 0.50739185212536 1.43926688227917
| 13> H   -2.3639153059551 -1.13890501160318 0.67073117374681
| 14> H   0.05310058428009 1.679695526082 0.61836237679221
| 15> H   0.42449905814654 -1.02816944543865 -1.48289232121254
| 16> H   0.45473776159684 1.33320254703357 -1.06683383875411
| 17> *
| 18>
| 19>                          ****END OF INPUT****

CARTESIAN COORDINATES (ANGSTROEM)
---------------------------------
  C      1.817039    0.433983    0.364318
  C      0.410515    0.886081   -0.054021
  H      2.210889   -0.355068   -0.298230
  H      1.805474    0.025946    1.387134
  H      2.528494    1.274040    0.333988
  C     -0.598011   -0.233952   -0.065979
  O     -0.341377   -1.253136   -0.940555
  C     -1.676810   -0.292077    0.726755
  H     -1.880980    0.507392    1.439267
  H     -2.363915   -1.138905    0.670731
  H      0.053101    1.679696    0.618362
  H      0.424499   -1.028169   -1.482892
  H      0.454738    1.333203   -1.066834

 Total Charge           Charge          ....    0
 Multiplicity           Mult            ....    1
 Number of Electrons    NEL             ....   40
 Basis Dimension        Dim             ....  110

ORBITAL ENERGIES
----------------

  NO   OCC          E(Eh)            E(eV)
   0   2.0000     -19.151946      -521.1509
   1   2.0000     -10.234355      -278.4910
   2   2.0000     -10.197392      -277.4852
   3   2.0000     -10.190928      -277.3093
   4   2.0000     -10.155713      -276.3510
   5   2.0000      -1.037546       -28.2331
   6   2.0000      -0.782917       -21.3042
   7   2.0000      -0.721188       -19.6245
   8   2.0000      -0.628378       -17.0990
   9   2.0000      -0.570844       -15.5335
  10   2.0000      -0.496452       -13.5091
  11   2.0000      -0.465377       -12.6636
  12   2.0000      -0.435577       -11.8526
  13   2.0000      -0.408967       -11.1286
  14   2.0000      -0.389984       -10.6120
  15   2.0000      -0.386409       -10.5147
  16   2.0000      -0.360411        -9.8073
  17   2.0000      -0.346596        -9.4313
  18   2.0000      -0.332057        -9.0357
  19   2.0000      -0.218676        -5.9505
  20   0.0000       0.030066         0.8181
  21   0.0000       0.044229         1.2035
  22   0.0000       0.088302         2.4028
  23   0.0000       0.099524         2.7082
  24   0.0000       0.107834         2.9343

MULLIKEN ATOMIC CHARGES
-----------------------
   0 C :   -0.002223
   1 C :    0.032378
   2 H :   -0.000923
   3 H :    0.025379
   4 H :    0.019682
   5 C :    0.018384
   6 O :   -0.206327
   7 C :   -0.081153
   8 H :    0.002125
   9 H :    0.011578
  10 H :    0.005717
  11 H :    0.165621
  12 H :    0.009763
Sum of atomic charges:   -0.0000000

LOEWDIN ATOMIC CHARGES
----------------------
   0 C :   -0.053119
   1 C :   -0.047444
   2 H :    0.014980
   3 H :    0.029161
   4 H :    0.026529
   5 C :    0.041606
   6 O :   -0.061661
   7 C :   -0.138695
   8 H :    0.022096
   9 H :    0.024336
  10 H :    0.034258
  11 H :    0.082097
  12 H :    0.025858

  Mayer bond orders larger than 0.100000
B(  0-C ,  1-C ) :   1.0850 B(  0-C ,  2-H ) :   0.9672 B(  0-C ,  3-H ) :   0.9701
B(  0-C ,  4-H ) :   0.9655 B(  1-C ,  5-C ) :   1.0396 B(  1-C , 10-H ) :   0.9271
B(  1-C , 12-H ) :   0.9240 B(  5-C ,  6-O ) :   1.1662 B(  5-C ,  7-C ) :   1.9251
B(  6-O , 11-H ) :   0.9692 B(  7-C ,  8-H ) :   0.9410 B(  7-C ,  9-H ) :   0.9378

Dispersion correction           -0.015129408
FINAL SINGLE POINT ENERGY      -232.142841617217
Dispersion correction             ... done (  0.1 sec)

DIPOLE MOMENT
-------------

Method             : SCF
Type of density    : Electron Density
Multiplicity       :   1
Irrep              :   0
Energy             :  -232.1277122094040521 Eh
Basis              : AO
                                X                 Y                 Z
Electronic contribution:     -2.601457756      -2.511544336      -1.899300924
Nuclear contribution   :      3.316438100       2.992223670       1.673205773
                        -----------------------------------------
Total Dipole Moment    :      0.714980344       0.480679335      -0.226095151
                        -----------------------------------------
Magnitude (a.u.)       :      0.890712374
Magnitude (Debye)      :      2.264010930

Rotational constants in cm-1:             0.269084             0.127446             0.098628
Rotational constants in MHz :          8066.935818          3820.724562          2956.800019

                             ****ORCA TERMINATED NORMALLY****
TOTAL RUN TIME: 0 days 0 hours 0 minutes 13 seconds 368 msec
