                         Program Version 6.1.0  -  RELEASE   -
|  1> ! B3LYP def2-SVP d3 EnGrad
|  2> %pal nprocs 6 end
|  3> *xyz 0 1
|  4> C   -3.84488750868764 0.02787135293565 0.89669225907695
|  5> C   -2.49920592430487 0.03652984921728 0.24191204302359
|  6> C   -2.05511706950359 0.98249590615259 -0.59423786074482
|  7> C   -0.70940164990711 0.9713132686547 -1.2636141309658
|  8> O   0.26782481218642 0.17344408734969 -0.56082470429284
|  9> Cl   -0.51755094059195 -2.74311275781478 -1.36126713544662
| 10> S   0.80583225959989 0.74620845416435 0.90989159608537
| 11> O   1.65066405325467 -0.33605527520459 1.39867681066805
| 12> Cl   2.08580708211847 2.35401195329059 0.10510815324548
| 13> H   -3.7506667788464 -0.00298848847294 1.99625773804432
| 14> H   -4.40967798906434 -0.87567916274624 0.60776350430837
| 15> H   -4.44286808392407 0.91115018049633 0.62489684569448
| 16> H   -1.84854731000474 -0.81802732580493 0.461989043205
| 17> H   -2.70015158570165 1.82917505790415 -0.85869023801186
| 18> H   -0.75402054400902 0.50302695257025 -2.26063380936988
| 19> H   -0.30569137421783 1.98942265923856 -1.39352829541
| 20> H   0.12036355160383 -1.68535971193061 -0.95370381910979
| 21> *
| 22>
| 23>                          ****END OF INPUT****

CARTESIAN COORDINATES (ANGSTROEM)
---------------------------------
  C     -3.844888    0.027871    0.896692
  C     -2.499206    0.036530    0.241912
  C     -2.055117    0.982496   -0.594238
  C     -0.709402    0.971313   -1.263614
  O      0.267825    0.173444   -0.560825
  Cl    -0.517551   -2.743113   -1.361267
  S      0.805832    0.746208    0.909892
  O      1.650664   -0.336055    1.398677
  Cl     2.085807    2.354012    0.105108
  H     -3.750667   -0.002988    1.996258
  H     -4.409678   -0.875679    0.607764
  H     -4.442868    0.911150    0.624897
  H     -1.848547   -0.818027    0.461989
  H     -2.700152    1.829175   -0.858690
  H     -0.754021    0.503027   -2.260634
  H     -0.305691    1.989423   -1.393528
  H      0.120364   -1.685360   -0.953704

 Total Charge           Charge          ....    0
 Multiplicity           Mult            ....    1
 Number of Electrons    NEL             ....   98
 Basis Dimension        Dim             ....  178

ORBITAL ENERGIES
----------------

  NO   OCC          E(Eh)            E(eV)
   0   2.0000    -101.498928     -2761.9262
   1   2.0000    -101.481479     -2761.4514
   2   2.0000     -89.052727     -2423.2479
   3   2.0000     -19.211096      -522.7605
   4   2.0000     -19.175445      -521.7904
   5   2.0000     -10.277090      -279.6538
   6   2.0000     -10.209486      -277.8142
   7   2.0000     -10.207437      -277.7585
   8   2.0000     -10.200007      -277.5563
   9   2.0000      -9.453098      -257.2319
  10   2.0000      -9.435155      -256.7436
  11   2.0000      -8.129727      -221.2211
  12   2.0000      -7.221341      -196.5027
  13   2.0000      -7.212851      -196.2716
  14   2.0000      -7.212390      -196.2591
  15   2.0000      -7.203546      -196.0184
  16   2.0000      -7.194790      -195.7802
  17   2.0000      -7.194743      -195.7789
  18   2.0000      -6.098584      -165.9509
  19   2.0000      -6.097466      -165.9205
  20   2.0000      -6.089554      -165.7052
  21   2.0000      -1.126472       -30.6529
  22   2.0000      -1.051184       -28.6042
  23   2.0000      -0.829222       -22.5643
  24   2.0000      -0.811495       -22.0819
  25   2.0000      -0.811232       -22.0747
  26   2.0000      -0.755029       -20.5454
  27   2.0000      -0.695913       -18.9368
  28   2.0000      -0.645585       -17.5672
  29   2.0000      -0.573970       -15.6185
  30   2.0000      -0.529468       -14.4076
  31   2.0000      -0.518775       -14.1166
  32   2.0000      -0.515020       -14.0144
  33   2.0000      -0.475284       -12.9331
  34   2.0000      -0.451791       -12.2939
  35   2.0000      -0.450406       -12.2562
  36   2.0000      -0.435912       -11.8618
  37   2.0000      -0.423588       -11.5264
  38   2.0000      -0.404474       -11.0063
  39   2.0000      -0.391209       -10.6453
  40   2.0000      -0.369472       -10.0538
  41   2.0000      -0.360651        -9.8138
  42   2.0000      -0.352118        -9.5816
  43   2.0000      -0.318855        -8.6765
  44   2.0000      -0.318254        -8.6601
  45   2.0000      -0.304690        -8.2910
  46   2.0000      -0.302691        -8.2367
  47   2.0000      -0.300275        -8.1709
  48   2.0000      -0.269791        -7.3414
  49   0.0000      -0.092637        -2.5208
  50   0.0000      -0.030452        -0.8286
  51   0.0000      -0.006016        -0.1637
  52   0.0000       0.034609         0.9418
  53   0.0000       0.061437         1.6718

MULLIKEN ATOMIC CHARGES
-----------------------
   0 C :    0.060327
   1 C :   -0.076875
   2 C :   -0.131050
   3 C :    0.274125
   4 O :   -0.481382
   5 Cl:   -0.182364
   6 S :    0.824590
   7 O :   -0.395569
   8 Cl:   -0.228626
   9 H :    0.029374
  10 H :    0.036706
  11 H :    0.014096
  12 H :   -0.003916
  13 H :    0.007649
  14 H :    0.056790
  15 H :    0.029610
  16 H :    0.166515
Sum of atomic charges:   -0.0000000

LOEWDIN ATOMIC CHARGES
----------------------
   0 C :   -0.050287
   1 C :   -0.023004
   2 C :   -0.084594
   3 C :    0.070118
   4 O :   -0.305080
   5 Cl:   -0.038155
   6 S :    0.873405
   7 O :   -0.435123
   8 Cl:   -0.213209
   9 H :    0.036474
  10 H :    0.040480
  11 H :    0.028780
  12 H :    0.013030
  13 H :    0.029463
  14 H :    0.042209
  15 H :    0.014967
  16 H :    0.000527

  Mayer bond orders larger than 0.100000
B(  0-C ,  1-C ) :   1.0865 B(  0-C ,  9-H ) :   0.9534 B(  0-C , 10-H ) :   0.9501
B(  0-C , 11-H ) :   0.9674 B(  1-C ,  2-C ) :   1.9222 B(  1-C , 12-H ) :   0.9481
B(  2-C ,  3-C ) :   1.0346 B(  2-C , 13-H ) :   0.9508 B(  3-C ,  4-O ) :   0.8741
B(  3-C , 14-H ) :   0.9314 B(  3-C , 15-H ) :   0.9416 B(  4-O ,  6-S ) :   0.8877
B(  5-Cl, 16-H ) :   0.9219 B(  6-S ,  7-O ) :   1.7885 B(  6-S ,  8-Cl) :   0.8046
B(  7-O ,  8-Cl) :   0.1703

Dispersion correction           -0.031218354
FINAL SINGLE POINT ENERGY     -1625.274379245109
Dispersion correction             ... done (  0.0 sec)

DIPOLE MOMENT
-------------

Method             : SCF
Type of density    : Electron Density
Multiplicity       :   1
Irrep              :   0
Energy             : -1625.2431608907868394 Eh
Basis              : AO
                                X                 Y                 Z
Electronic contribution:     17.399110282      -0.446801328      -0.291894281
Nuclear contribution   :    -18.681253332       1.385826333       0.318796111
                        -----------------------------------------
Total Dipole Moment    :     -1.282143050       0.939025005       0.026901830
                        -----------------------------------------
Magnitude (a.u.)       :      1.589459804
Magnitude (Debye)      :      4.040085752

Rotational constants in cm-1:             0.033469             0.018351             0.014526
Rotational constants in MHz :          1003.375706           550.144594           435.474705

                             ****ORCA TERMINATED NORMALLY****
TOTAL RUN TIME: 0 days 0 hours 0 minutes 27 seconds 957 msec
