                         Program Version 6.1.0  -  RELEASE   -
|  1> ! B3LYP def2-SVP d3 EnGrad
|  2> %pal nprocs 6 end
|  3> *xyz 0 2
|  4> C   0.22942196527252 -0.39749135617138 -1.43674047151926
|  5> C   -0.02003093037272 0.0652577839535 -0.02076919706188
|  6> H   1.06510437251489 0.15901221666898 -1.88599613851402
|  7> H   0.47913084276299 -1.46431709586879 -1.35800968500177
|  8> H   -0.66072508958424 -0.22977377777564 -2.05935967929677
|  9> C   -1.3201661547851 -0.31336619156233 0.64553673976346
| 10> C   1.09209536898496 0.66406513552238 0.80786048490195
| 11> H   -1.54751201748737 0.37210200105792 1.47496488138903
| 12> H   -2.15306805012282 -0.26468184567316 -0.07079666582274
| 13> H   -1.16782194516127 -1.33758393892109 1.01375041187948
| 14> H   0.68864185576334 1.38951248296309 1.52844811340467
| 15> H   1.57034293458761 -0.18632467206865 1.31260871740036
| 16> H   1.81228825910562 1.19180272316135 0.16591312967325
| 17> F   0.76137285120014 -1.88019740814528 0.60800719800539
| 18> Cl   -0.82907426267857 2.23198394285909 -0.72541783920117
| 19> *
| 20>
| 21>                          ****END OF INPUT****

CARTESIAN COORDINATES (ANGSTROEM)
---------------------------------
  C      0.229422   -0.397491   -1.436740
  C     -0.020031    0.065258   -0.020769
  H      1.065104    0.159012   -1.885996
  H      0.479131   -1.464317   -1.358010
  H     -0.660725   -0.229774   -2.059360
  C     -1.320166   -0.313366    0.645537
  C      1.092095    0.664065    0.807860
  H     -1.547512    0.372102    1.474965
  H     -2.153068   -0.264682   -0.070797
  H     -1.167822   -1.337584    1.013750
  H      0.688642    1.389512    1.528448
  H      1.570343   -0.186325    1.312609
  H      1.812288    1.191803    0.165913
  F      0.761373   -1.880197    0.608007
  Cl    -0.829074    2.231984   -0.725418

 Total Charge           Charge          ....    0
 Multiplicity           Mult            ....    2
 Number of Electrons    NEL             ....   59
 Basis Dimension        Dim             ....  133

ORBITAL ENERGIES
----------------
                 SPIN UP ORBITALS
  NO   OCC          E(Eh)            E(eV)
   0   1.0000    -101.484598     -2761.5363
   1   1.0000     -24.634500      -670.3388
   2   1.0000     -10.308601      -280.5113
   3   1.0000     -10.209266      -277.8082
   4   1.0000     -10.206340      -277.7286
   5   1.0000     -10.199108      -277.5318
   6   1.0000      -9.436005      -256.7667
   7   1.0000      -7.205254      -196.0649
   8   1.0000      -7.198596      -195.8838
   9   1.0000      -7.194697      -195.7777
  10   1.0000      -1.072002       -29.1707
  11   1.0000      -0.840827       -22.8801
  12   1.0000      -0.772083       -21.0095
  13   1.0000      -0.718781       -19.5590
  14   1.0000      -0.711789       -19.3688
  15   1.0000      -0.552075       -15.0227
  16   1.0000      -0.483523       -13.1573
  17   1.0000      -0.467007       -12.7079
  18   1.0000      -0.466846       -12.7035
  19   1.0000      -0.447104       -12.1663
  20   1.0000      -0.427643       -11.6368
  21   1.0000      -0.389791       -10.6068
  22   1.0000      -0.379990       -10.3400
  23   1.0000      -0.377618       -10.2755
  24   1.0000      -0.371748       -10.1158
  25   1.0000      -0.342201        -9.3118
  26   1.0000      -0.339816        -9.2469
  27   1.0000      -0.320739        -8.7278
  28   1.0000      -0.306894        -8.3510
  29   1.0000      -0.296355        -8.0642
  30   0.0000      -0.080602        -2.1933
  31   0.0000       0.056129         1.5273
  32   0.0000       0.093996         2.5578
  33   0.0000       0.095602         2.6015
  34   0.0000       0.112155         3.0519

                 SPIN DOWN ORBITALS
  NO   OCC          E(Eh)            E(eV)
   0   1.0000    -101.481411     -2761.4496
   1   1.0000     -24.618897      -669.9142
   2   1.0000     -10.308871      -280.5186
   3   1.0000     -10.208659      -277.7917
   4   1.0000     -10.205915      -277.7171
   5   1.0000     -10.199101      -277.5316
   6   1.0000      -9.433032      -256.6859
   7   1.0000      -7.196606      -195.8296
   8   1.0000      -7.195368      -195.7959
   9   1.0000      -7.192895      -195.7286
  10   1.0000      -1.030157       -28.0320
  11   1.0000      -0.838032       -22.8040
  12   1.0000      -0.750640       -20.4259
  13   1.0000      -0.716636       -19.5006
  14   1.0000      -0.711164       -19.3518
  15   1.0000      -0.551403       -15.0044
  16   1.0000      -0.478961       -13.0332
  17   1.0000      -0.466397       -12.6913
  18   1.0000      -0.466311       -12.6890
  19   1.0000      -0.428926       -11.6717
  20   1.0000      -0.424558       -11.5528
  21   1.0000      -0.388906       -10.5827
  22   1.0000      -0.377246       -10.2654
  23   1.0000      -0.376813       -10.2536
  24   1.0000      -0.326983        -8.8976
  25   1.0000      -0.325837        -8.8665
  26   1.0000      -0.299537        -8.1508
  27   1.0000      -0.288911        -7.8617
  28   1.0000      -0.267052        -7.2669
  29   0.0000      -0.231010        -6.2861
  30   0.0000      -0.079411        -2.1609
  31   0.0000       0.056502         1.5375
  32   0.0000       0.094296         2.5659
  33   0.0000       0.096590         2.6283

MULLIKEN ATOMIC CHARGES AND SPIN POPULATIONS
--------------------------------------------
   0 C :    0.112422    0.023822
   1 C :   -0.226355   -0.026437
   2 H :    0.028882    0.000817
   3 H :    0.070631   -0.000387
   4 H :    0.033044    0.000611
   5 C :    0.108928    0.003118
   6 C :    0.109433    0.030775
   7 H :    0.025686    0.000140
   8 H :    0.026770   -0.000493
   9 H :    0.071210   -0.003069
  10 H :    0.034502    0.001759
  11 H :    0.073412    0.001613
  12 H :    0.032908    0.001441
  13 F :   -0.297532    0.497318
  14 Cl:   -0.203941    0.468971
Sum of atomic charges         :   -0.0000000

LOEWDIN ATOMIC CHARGES AND SPIN POPULATIONS
-------------------------------------------
   0 C :   -0.048571    0.017719
   1 C :    0.166018   -0.016974
   2 H :    0.036459    0.001274
   3 H :    0.051912    0.004610
   4 H :    0.034870    0.001780
   5 C :   -0.054658    0.000355
   6 C :   -0.047257    0.024615
   7 H :    0.033757    0.000021
   8 H :    0.033158   -0.000421
   9 H :    0.049087   -0.001746
  10 H :    0.036230    0.002778
  11 H :    0.053995    0.007871
  12 H :    0.037228    0.002018
  13 F :   -0.269121    0.493252
  14 Cl:   -0.113106    0.462849

  Mayer bond orders larger than 0.100000
B(  0-C ,  1-C ) :   1.0681 B(  0-C ,  2-H ) :   0.9495 B(  0-C ,  3-H ) :   0.9048
B(  0-C ,  4-H ) :   0.9409 B(  1-C ,  5-C ) :   1.0689 B(  1-C ,  6-C ) :   1.0688
B(  1-C , 13-F ) :   0.1922 B(  1-C , 14-Cl) :   0.4645 B(  5-C ,  7-H ) :   0.9510
B(  5-C ,  8-H ) :   0.9495 B(  5-C ,  9-H ) :   0.9186 B(  6-C , 10-H ) :   0.9412
B(  6-C , 11-H ) :   0.8961 B(  6-C , 12-H ) :   0.9465 B( 13-F , 14-Cl) :   0.4179

Dispersion correction           -0.022959159
FINAL SINGLE POINT ENERGY      -717.225595870824
Dispersion correction             ... done (  0.0 sec)

DIPOLE MOMENT
-------------

Method             : SCF
Type of density    : Electron Density
Multiplicity       :   2
Irrep              :   0
Energy             :  -717.2026367117441623 Eh
Basis              : AO
                                X                 Y                 Z
Electronic contribution:     -1.325520636       4.075580327      -1.330202834
Nuclear contribution   :      1.322237997      -3.995322382       1.304398154
                        -----------------------------------------
Total Dipole Moment    :     -0.003282639       0.080257945      -0.025804680
                        -----------------------------------------
Magnitude (a.u.)       :      0.084368211
Magnitude (Debye)      :      0.214446949

Rotational constants in cm-1:             0.142588             0.048484             0.048290
Rotational constants in MHz :          4274.687566          1453.526151          1447.695503

                             ****ORCA TERMINATED NORMALLY****
TOTAL RUN TIME: 0 days 0 hours 0 minutes 29 seconds 479 msec
