                         Program Version 6.1.0  -  RELEASE   -
|  1> ! B3LYP def2-SVP d3 EnGrad
|  2> %pal nprocs 6 end
|  3> *xyz 0 1
|  4> H   3.25134228141808 0.26782525957361 -0.54350841060746
|  5> C   2.29052372829017 0.49791608943382 -0.07134020626406
|  6> C   1.56535782800932 1.5573168880025 -0.43383627164235
|  7> H   1.94052081704886 -0.17380351639937 0.71820078417936
|  8> H   0.61057097656413 1.77643166653544 0.05434752897085
|  9> O   -2.11839882133772 -1.58418131961046 -0.06291629609907
| 10> H   -2.54786202878989 -1.72797915976167 0.8006073984299
| 11> O   -0.59501991177628 -0.56730313689139 1.24817733852728
| 12> C   -0.98273469987509 -0.91391119759969 0.16458318918481
| 13> H   -0.44995310919934 -0.72183387378081 -0.78937213400079
| 14> H   1.8943599396477 2.24649930049804 -1.21876892067848
| 15> *
| 16>
| 17>                          ****END OF INPUT****

CARTESIAN COORDINATES (ANGSTROEM)
---------------------------------
  H      3.251342    0.267825   -0.543508
  C      2.290524    0.497916   -0.071340
  C      1.565358    1.557317   -0.433836
  H      1.940521   -0.173804    0.718201
  H      0.610571    1.776432    0.054348
  O     -2.118399   -1.584181   -0.062916
  H     -2.547862   -1.727979    0.800607
  O     -0.595020   -0.567303    1.248177
  C     -0.982735   -0.913911    0.164583
  H     -0.449953   -0.721834   -0.789372
  H      1.894360    2.246499   -1.218769

 Total Charge           Charge          ....    0
 Multiplicity           Mult            ....    1
 Number of Electrons    NEL             ....   40
 Basis Dimension        Dim             ....  100

ORBITAL ENERGIES
----------------

  NO   OCC          E(Eh)            E(eV)
   0   2.0000     -19.193721      -522.2877
   1   2.0000     -19.137698      -520.7632
   2   2.0000     -10.324083      -280.9326
   3   2.0000     -10.181297      -277.0472
   4   2.0000     -10.179959      -277.0108
   5   2.0000      -1.106960       -30.1219
   6   2.0000      -1.017352       -27.6836
   7   2.0000      -0.742758       -20.2115
   8   2.0000      -0.662292       -18.0219
   9   2.0000      -0.562360       -15.3026
  10   2.0000      -0.521642       -14.1946
  11   2.0000      -0.486711       -13.2441
  12   2.0000      -0.457579       -12.4514
  13   2.0000      -0.454577       -12.3697
  14   2.0000      -0.411287       -11.1917
  15   2.0000      -0.405015       -11.0210
  16   2.0000      -0.347372        -9.4525
  17   2.0000      -0.333074        -9.0634
  18   2.0000      -0.293316        -7.9815
  19   2.0000      -0.268141        -7.2965
  20   0.0000      -0.003706        -0.1009
  21   0.0000       0.014106         0.3839
  22   0.0000       0.049618         1.3502
  23   0.0000       0.092883         2.5275
  24   0.0000       0.110057         2.9948

MULLIKEN ATOMIC CHARGES
-----------------------
   0 H :    0.023024
   1 C :   -0.064887
   2 C :   -0.068649
   3 H :    0.043943
   4 H :    0.033739
   5 O :   -0.179410
   6 H :    0.180244
   7 O :   -0.239119
   8 C :    0.225656
   9 H :    0.021822
  10 H :    0.023637
Sum of atomic charges:   -0.0000000

LOEWDIN ATOMIC CHARGES
----------------------
   0 H :    0.021228
   1 C :   -0.047987
   2 C :   -0.052731
   3 H :    0.025531
   4 H :    0.023233
   5 O :   -0.035895
   6 H :    0.096722
   7 O :   -0.170209
   8 C :    0.118103
   9 H :    0.000690
  10 H :    0.021316

  Mayer bond orders larger than 0.100000
B(  0-H ,  1-C ) :   0.9605 B(  1-C ,  2-C ) :   2.0698 B(  1-C ,  3-H ) :   0.9521
B(  2-C ,  4-H ) :   0.9569 B(  2-C , 10-H ) :   0.9615 B(  5-O ,  6-H ) :   0.9484
B(  5-O ,  8-C ) :   1.2275 B(  7-O ,  8-C ) :   2.0252 B(  8-C ,  9-H ) :   0.9291

Dispersion correction           -0.009876017
FINAL SINGLE POINT ENERGY      -268.016103924872
Dispersion correction             ... done (  0.1 sec)

DIPOLE MOMENT
-------------

Method             : SCF
Type of density    : Electron Density
Multiplicity       :   1
Irrep              :   0
Energy             :  -268.0062279081511178 Eh
Basis              : AO
                                X                 Y                 Z
Electronic contribution:     -5.137673429      -3.288747631       1.697650648
Nuclear contribution   :      4.686571573       2.986094467      -1.961158823
                        -----------------------------------------
Total Dipole Moment    :     -0.451101856      -0.302653164      -0.263508175
                        -----------------------------------------
Magnitude (a.u.)       :      0.603761858
Magnitude (Debye)      :      1.534640682

Rotational constants in cm-1:             0.417232             0.055483             0.053541
Rotational constants in MHz :         12508.312140          1663.340092          1605.103830

                             ****ORCA TERMINATED NORMALLY****
TOTAL RUN TIME: 0 days 0 hours 0 minutes 10 seconds 296 msec
