                         Program Version 6.1.0  -  RELEASE   -
|  1> ! B3LYP def2-SVP d3 EnGrad
|  2> %pal nprocs 6 end
|  3> *xyz 0 1
|  4> C   1.29268081830162 0.02326636225358 -0.23920352861299
|  5> H   1.36532729574097 -0.1845542941705 -1.30888140480387
|  6> H   2.16778519602404 0.3990388838224 0.28950224320419
|  7> C   0.04193451856069 -0.05741601632116 0.4425289246045
|  8> C   -1.25659928954753 -0.38362244858837 -0.05072571185383
|  9> H   0.08495095789698 0.17057515716151 1.51611554274226
| 10> H   -2.1201651702637 -0.28246263450954 0.60551958901217
| 11> H   -0.1619667741893 0.94335503360416 -0.15141943360506
| 12> H   -1.41394755252378 -0.62818004325209 -1.10343622068736
| 13> *
| 14>
| 15>                          ****END OF INPUT****

CARTESIAN COORDINATES (ANGSTROEM)
---------------------------------
  C      1.292681    0.023266   -0.239204
  H      1.365327   -0.184554   -1.308881
  H      2.167785    0.399039    0.289502
  C      0.041935   -0.057416    0.442529
  C     -1.256599   -0.383622   -0.050726
  H      0.084951    0.170575    1.516116
  H     -2.120165   -0.282463    0.605520
  H     -0.161967    0.943355   -0.151419
  H     -1.413948   -0.628180   -1.103436

 Total Charge           Charge          ....    0
 Multiplicity           Mult            ....    1
 Number of Electrons    NEL             ....   24
 Basis Dimension        Dim             ....   72

ORBITAL ENERGIES
----------------

  NO   OCC          E(Eh)            E(eV)
   0   2.0000     -10.223725      -278.2017
   1   2.0000     -10.176903      -276.9276
   2   2.0000     -10.176825      -276.9255
   3   2.0000      -0.814845       -22.1730
   4   2.0000      -0.659593       -17.9484
   5   2.0000      -0.549624       -14.9560
   6   2.0000      -0.487708       -13.2712
   7   2.0000      -0.427773       -11.6403
   8   2.0000      -0.411503       -11.1976
   9   2.0000      -0.382208       -10.4004
  10   2.0000      -0.353453        -9.6180
  11   2.0000      -0.166172        -4.5218
  12   0.0000      -0.022414        -0.6099
  13   0.0000       0.046345         1.2611
  14   0.0000       0.081068         2.2060
  15   0.0000       0.103691         2.8216
  16   0.0000       0.117242         3.1903

MULLIKEN ATOMIC CHARGES
-----------------------
   0 C :   -0.187623
   1 H :    0.022024
   2 H :    0.027682
   3 C :    0.082258
   4 C :   -0.188213
   5 H :    0.026785
   6 H :    0.027830
   7 H :    0.167130
   8 H :    0.022127
Sum of atomic charges:   -0.0000000

LOEWDIN ATOMIC CHARGES
----------------------
   0 C :   -0.162304
   1 H :    0.018224
   2 H :    0.020273
   3 C :   -0.001054
   4 C :   -0.162345
   5 H :    0.045240
   6 H :    0.020299
   7 H :    0.203419
   8 H :    0.018247

  Mayer bond orders larger than 0.100000
B(  0-C ,  1-H ) :   0.9625 B(  0-C ,  2-H ) :   0.9575 B(  0-C ,  3-C ) :   1.2190
B(  0-C ,  4-C ) :   0.5262 B(  0-C ,  7-H ) :   0.1786 B(  3-C ,  4-C ) :   1.2182
B(  3-C ,  5-H ) :   0.9595 B(  3-C ,  7-H ) :   0.6385 B(  4-C ,  6-H ) :   0.9575
B(  4-C ,  7-H ) :   0.1792 B(  4-C ,  8-H ) :   0.9626

Dispersion correction           -0.008139199
FINAL SINGLE POINT ENERGY      -117.613099336633
Dispersion correction             ... done (  0.0 sec)

DIPOLE MOMENT
-------------

Method             : SCF
Type of density    : Electron Density
Multiplicity       :   1
Irrep              :   0
Energy             :  -117.6049601377763452 Eh
Basis              : AO
                                X                 Y                 Z
Electronic contribution:      0.125951682      -0.557970250       0.499070026
Nuclear contribution   :     -0.188020013       1.006837940      -0.367767859
                        -----------------------------------------
Total Dipole Moment    :     -0.062068332       0.448867690       0.131302167
                        -----------------------------------------
Magnitude (a.u.)       :      0.471778486
Magnitude (Debye)      :      1.199165612

Rotational constants in cm-1:             1.669461             0.306283             0.269032
Rotational constants in MHz :         50049.190471          9182.130326          8065.367100

                             ****ORCA TERMINATED NORMALLY****
TOTAL RUN TIME: 0 days 0 hours 0 minutes 8 seconds 13 msec
