                         Program Version 6.1.0  -  RELEASE   -
|  1> ! B3LYP def2-SVP d3 EnGrad
|  2> %pal nprocs 6 end
|  3> *xyz 0 1
|  4> N   0.55611068389858 -1.27021189309286 -0.27511451340854
|  5> B   -1.89776531736424 0.00194551821502 -0.08634400862308
|  6> B   0.38782956732042 0.12876571672554 0.53666821687803
|  7> N   0.98666771680632 1.22824686770114 -0.21064975701794
|  8> H   1.54724650483899 -1.44236803271532 -0.45983829385602
|  9> H   0.05214113311208 -1.18837924606453 -1.16564445426956
| 10> H   0.15130275118276 -2.06280149006246 0.22955150097224
| 11> H   -1.47692241913215 0.2092305507557 -1.21700510717662
| 12> H   -2.21856314917162 -1.15916692688828 0.12768024692831
| 13> H   -2.6549848806394 0.8532965087118 0.33362978856734
| 14> H   -0.91102553030878 0.1810261766321 0.81022285635392
| 15> H   0.80570191896875 -0.04714977953767 1.6669743825204
| 16> H   1.41247747919319 1.96124920816693 0.34608908333593
| 17> H   0.43171554129507 1.6425028214529 -0.95475494120442
| 18> *
| 19>
| 20>                          ****END OF INPUT****

CARTESIAN COORDINATES (ANGSTROEM)
---------------------------------
  N      0.556111   -1.270212   -0.275115
  B     -1.897765    0.001946   -0.086344
  B      0.387830    0.128766    0.536668
  N      0.986668    1.228247   -0.210650
  H      1.547247   -1.442368   -0.459838
  H      0.052141   -1.188379   -1.165644
  H      0.151303   -2.062801    0.229552
  H     -1.476922    0.209231   -1.217005
  H     -2.218563   -1.159167    0.127680
  H     -2.654985    0.853297    0.333630
  H     -0.911026    0.181026    0.810223
  H      0.805702   -0.047150    1.666974
  H      1.412477    1.961249    0.346089
  H      0.431716    1.642503   -0.954755

 Total Charge           Charge          ....    0
 Multiplicity           Mult            ....    1
 Number of Electrons    NEL             ....   34
 Basis Dimension        Dim             ....  106

ORBITAL ENERGIES
----------------

  NO   OCC          E(Eh)            E(eV)
   0   2.0000     -14.416121      -392.2826
   1   2.0000     -14.283431      -388.6719
   2   2.0000      -6.768151      -184.1707
   3   2.0000      -6.698280      -182.2695
   4   2.0000      -0.951467       -25.8907
   5   2.0000      -0.818396       -22.2697
   6   2.0000      -0.576016       -15.6742
   7   2.0000      -0.560974       -15.2649
   8   2.0000      -0.550389       -14.9769
   9   2.0000      -0.476607       -12.9691
  10   2.0000      -0.463854       -12.6221
  11   2.0000      -0.410630       -11.1738
  12   2.0000      -0.369856       -10.0643
  13   2.0000      -0.308078        -8.3832
  14   2.0000      -0.292686        -7.9644
  15   2.0000      -0.285477        -7.7682
  16   2.0000      -0.238011        -6.4766
  17   0.0000       0.016479         0.4484
  18   0.0000       0.056844         1.5468
  19   0.0000       0.076093         2.0706
  20   0.0000       0.083205         2.2641
  21   0.0000       0.085928         2.3382

MULLIKEN ATOMIC CHARGES
-----------------------
   0 N :    0.059049
   1 B :   -0.267668
   2 B :   -0.193451
   3 N :   -0.126373
   4 H :    0.146646
   5 H :    0.156439
   6 H :    0.158475
   7 H :   -0.107411
   8 H :   -0.065178
   9 H :   -0.026836
  10 H :    0.105569
  11 H :   -0.049767
  12 H :    0.105266
  13 H :    0.105239
Sum of atomic charges:    0.0000000

LOEWDIN ATOMIC CHARGES
----------------------
   0 N :    0.235869
   1 B :   -0.322001
   2 B :   -0.205876
   3 N :   -0.076859
   4 H :    0.110397
   5 H :    0.115632
   6 H :    0.117535
   7 H :   -0.049991
   8 H :   -0.050824
   9 H :   -0.028547
  10 H :    0.057376
  11 H :   -0.044857
  12 H :    0.073801
  13 H :    0.068346

  Mayer bond orders larger than 0.100000
B(  0-N ,  2-B ) :   0.7712 B(  0-N ,  4-H ) :   0.9530 B(  0-N ,  5-H ) :   0.9451
B(  0-N ,  6-H ) :   0.9556 B(  1-B ,  2-B ) :   0.2863 B(  1-B ,  7-H ) :   0.9207
B(  1-B ,  8-H ) :   0.9802 B(  1-B ,  9-H ) :   0.9865 B(  1-B , 10-H ) :   0.4489
B(  2-B ,  3-N ) :   1.4013 B(  2-B , 10-H ) :   0.4422 B(  2-B , 11-H ) :   0.9233
B(  3-N , 12-H ) :   0.9675 B(  3-N , 13-H ) :   0.9548

Dispersion correction           -0.015783374
FINAL SINGLE POINT ENERGY      -165.020666585650
Dispersion correction             ... done (  0.0 sec)

DIPOLE MOMENT
-------------

Method             : SCF
Type of density    : Electron Density
Multiplicity       :   1
Irrep              :   0
Energy             :  -165.0048832118524444 Eh
Basis              : AO
                                X                 Y                 Z
Electronic contribution:      3.479605727      -0.030070838      -0.138287998
Nuclear contribution   :     -1.851257993      -1.055414535      -0.315527711
                        -----------------------------------------
Total Dipole Moment    :      1.628347733      -1.085485372      -0.453815709
                        -----------------------------------------
Magnitude (a.u.)       :      2.008916009
Magnitude (Debye)      :      5.106258694

Rotational constants in cm-1:             0.241317             0.178578             0.120876
Rotational constants in MHz :          7234.503931          5353.636528          3623.758013

                             ****ORCA TERMINATED NORMALLY****
TOTAL RUN TIME: 0 days 0 hours 0 minutes 13 seconds 492 msec
