                         Program Version 6.1.0  -  RELEASE   -
|  1> ! B3LYP def2-SVP d3 EnGrad
|  2> %pal nprocs 6 end
|  3> *xyz 0 2
|  4> C   0.0309532477685 0.94562807684758 0.47010990101963
|  5> C   0.52670746779075 2.08330881673175 -0.33331878736114
|  6> O   0.09192204271201 2.28149543665898 1.00941481735535
|  7> H   0.81595867010167 0.25549829301052 0.82505822390037
|  8> H   -0.16604784243975 2.50947817774556 -1.07849924850427
|  9> C   -1.31910219291564 0.36231626923758 0.24370710862691
| 10> C   -2.4835913391389 1.13751324826302 0.34899760222663
| 11> C   -1.41466982406759 -0.99933643359698 -0.09553395305171
| 12> C   -3.7357626126233 0.56803577378341 0.09987428018961
| 13> H   -2.38589747654817 2.18623610535861 0.64106382039472
| 14> C   -2.67101493745356 -1.55870576838202 -0.34535903682618
| 15> H   -0.48795482100578 -1.5925988011619 -0.15709459476779
| 16> C   -3.83331738837623 -0.78260305321343 -0.25181941416623
| 17> H   -4.64070828691224 1.17844893724276 0.18590507984281
| 18> H   -2.74325018182857 -2.61781718065334 -0.61196094911899
| 19> H   -4.81325065768914 -1.23046318707141 -0.44578539050323
| 20> C   1.99811828384105 2.25182054078307 -0.61646758993303
| 21> H   2.58553781989361 1.53931710682036 -0.01656795939121
| 22> H   2.19977178742863 2.0390023505115 -1.68031489251701
| 23> H   2.31869789434871 3.28938302586376 -0.41147352045267
| 24> O   1.42984772961677 -2.34447941397657 -0.31529996767419
| 25> C   2.48213224818466 -1.75017025345517 0.00964720665419
| 26> O   2.60873724366315 -0.69132657069809 0.67882232094556
| 27> C   3.81530501838822 -2.37613559158756 -0.49552362519515
| 28> H   4.22652046635712 -1.7470613142394 -1.30567315523616
| 29> H   4.56473955185983 -2.38543895954506 0.3139398261186
| 30> H   3.6614970790442 -3.39549064107755 -0.88345209227538
| 31> *
| 32>
| 33>                          ****END OF INPUT****

CARTESIAN COORDINATES (ANGSTROEM)
---------------------------------
  C      0.030953    0.945628    0.470110
  C      0.526707    2.083309   -0.333319
  O      0.091922    2.281495    1.009415
  H      0.815959    0.255498    0.825058
  H     -0.166048    2.509478   -1.078499
  C     -1.319102    0.362316    0.243707
  C     -2.483591    1.137513    0.348998
  C     -1.414670   -0.999336   -0.095534
  C     -3.735763    0.568036    0.099874
  H     -2.385897    2.186236    0.641064
  C     -2.671015   -1.558706   -0.345359
  H     -0.487955   -1.592599   -0.157095
  C     -3.833317   -0.782603   -0.251819
  H     -4.640708    1.178449    0.185905
  H     -2.743250   -2.617817   -0.611961
  H     -4.813251   -1.230463   -0.445785
  C      1.998118    2.251821   -0.616468
  H      2.585538    1.539317   -0.016568
  H      2.199772    2.039002   -1.680315
  H      2.318698    3.289383   -0.411474
  O      1.429848   -2.344479   -0.315300
  C      2.482132   -1.750170    0.009647
  O      2.608737   -0.691327    0.678822
  C      3.815305   -2.376136   -0.495524
  H      4.226520   -1.747061   -1.305673
  H      4.564740   -2.385439    0.313940
  H      3.661497   -3.395491   -0.883452

 Total Charge           Charge          ....    0
 Multiplicity           Mult            ....    2
 Number of Electrons    NEL             ....  103
 Basis Dimension        Dim             ....  261

ORBITAL ENERGIES
----------------
                 SPIN UP ORBITALS
  NO   OCC          E(Eh)            E(eV)
   0   1.0000     -19.185783      -522.0717
   1   1.0000     -19.160987      -521.3970
   2   1.0000     -19.113121      -520.0945
   3   1.0000     -10.314243      -280.6648
   4   1.0000     -10.250373      -278.9268
   5   1.0000     -10.249669      -278.9077
   6   1.0000     -10.216756      -278.0121
   7   1.0000     -10.206824      -277.7418
   8   1.0000     -10.201443      -277.5954
   9   1.0000     -10.198411      -277.5129
  10   1.0000     -10.196935      -277.4727
  11   1.0000     -10.194530      -277.4073
  12   1.0000     -10.189484      -277.2700
  13   1.0000     -10.186571      -277.1907
  14   1.0000      -1.083961       -29.4961
  15   1.0000      -1.079234       -29.3675
  16   1.0000      -0.982869       -26.7452
  17   1.0000      -0.855794       -23.2873
  18   1.0000      -0.764886       -20.8136
  19   1.0000      -0.743134       -20.2217
  20   1.0000      -0.739409       -20.1203
  21   1.0000      -0.737544       -20.0696
  22   1.0000      -0.665043       -18.0967
  23   1.0000      -0.608423       -16.5560
  24   1.0000      -0.601466       -16.3667
  25   1.0000      -0.582052       -15.8384
  26   1.0000      -0.542336       -14.7577
  27   1.0000      -0.531930       -14.4746
  28   1.0000      -0.490930       -13.3589
  29   1.0000      -0.484198       -13.1757
  30   1.0000      -0.482023       -13.1165
  31   1.0000      -0.469122       -12.7655
  32   1.0000      -0.466571       -12.6960
  33   1.0000      -0.452178       -12.3044
  34   1.0000      -0.445947       -12.1348
  35   1.0000      -0.427549       -11.6342
  36   1.0000      -0.422192       -11.4884
  37   1.0000      -0.413898       -11.2627
  38   1.0000      -0.410509       -11.1705
  39   1.0000      -0.395537       -10.7631
  40   1.0000      -0.386940       -10.5292
  41   1.0000      -0.379020       -10.3137
  42   1.0000      -0.374146       -10.1810
  43   1.0000      -0.357018        -9.7150
  44   1.0000      -0.347849        -9.4655
  45   1.0000      -0.331899        -9.0314
  46   1.0000      -0.322782        -8.7833
  47   1.0000      -0.303325        -8.2539
  48   1.0000      -0.289940        -7.8897
  49   1.0000      -0.266742        -7.2584
  50   1.0000      -0.260599        -7.0913
  51   1.0000      -0.251011        -6.8304
  52   0.0000      -0.022397        -0.6095
  53   0.0000      -0.015011        -0.4085
  54   0.0000       0.017689         0.4814
  55   0.0000       0.062489         1.7004
  56   0.0000       0.067948         1.8490

                 SPIN DOWN ORBITALS
  NO   OCC          E(Eh)            E(eV)
   0   1.0000     -19.171040      -521.6705
   1   1.0000     -19.159074      -521.3449
   2   1.0000     -19.110924      -520.0347
   3   1.0000     -10.315023      -280.6860
   4   1.0000     -10.249975      -278.9160
   5   1.0000     -10.248746      -278.8826
   6   1.0000     -10.214151      -277.9412
   7   1.0000     -10.206094      -277.7219
   8   1.0000     -10.200448      -277.5683
   9   1.0000     -10.198525      -277.5160
  10   1.0000     -10.196505      -277.4610
  11   1.0000     -10.194780      -277.4141
  12   1.0000     -10.188875      -277.2534
  13   1.0000     -10.186539      -277.1898
  14   1.0000      -1.076077       -29.2815
  15   1.0000      -1.061480       -28.8843
  16   1.0000      -0.967777       -26.3346
  17   1.0000      -0.854065       -23.2403
  18   1.0000      -0.762318       -20.7437
  19   1.0000      -0.742237       -20.1973
  20   1.0000      -0.738648       -20.0996
  21   1.0000      -0.728234       -19.8162
  22   1.0000      -0.661543       -18.0015
  23   1.0000      -0.606678       -16.5085
  24   1.0000      -0.599696       -16.3186
  25   1.0000      -0.579065       -15.7572
  26   1.0000      -0.530959       -14.4481
  27   1.0000      -0.525741       -14.3061
  28   1.0000      -0.487470       -13.2647
  29   1.0000      -0.480320       -13.0702
  30   1.0000      -0.469309       -12.7705
  31   1.0000      -0.464323       -12.6349
  32   1.0000      -0.451067       -12.2742
  33   1.0000      -0.450253       -12.2520
  34   1.0000      -0.442537       -12.0420
  35   1.0000      -0.426426       -11.6036
  36   1.0000      -0.421352       -11.4656
  37   1.0000      -0.410545       -11.1715
  38   1.0000      -0.407554       -11.0901
  39   1.0000      -0.390984       -10.6392
  40   1.0000      -0.383056       -10.4235
  41   1.0000      -0.375044       -10.2055
  42   1.0000      -0.373446       -10.1620
  43   1.0000      -0.353326        -9.6145
  44   1.0000      -0.345520        -9.4021
  45   1.0000      -0.318263        -8.6604
  46   1.0000      -0.295320        -8.0361
  47   1.0000      -0.282221        -7.6796
  48   1.0000      -0.259348        -7.0572
  49   1.0000      -0.257478        -7.0063
  50   1.0000      -0.244220        -6.6456
  51   0.0000      -0.205827        -5.6008
  52   0.0000      -0.017666        -0.4807
  53   0.0000      -0.012547        -0.3414
  54   0.0000       0.019858         0.5404
  55   0.0000       0.063605         1.7308

MULLIKEN ATOMIC CHARGES AND SPIN POPULATIONS
--------------------------------------------
   0 C :    0.105777    0.040724
   1 C :    0.047493    0.019914
   2 O :   -0.298278    0.068631
   3 H :    0.041926    0.001712
   4 H :    0.017392   -0.002241
   5 C :    0.056097    0.047629
   6 C :   -0.008725    0.029175
   7 C :   -0.007162    0.044142
   8 C :    0.026362   -0.012507
   9 H :   -0.006595   -0.001691
  10 C :    0.019032   -0.023603
  11 H :   -0.002497   -0.002400
  12 C :    0.034042    0.076397
  13 H :   -0.010053    0.000849
  14 H :   -0.008257    0.000693
  15 H :   -0.007728   -0.003255
  16 C :    0.077844    0.001080
  17 H :    0.029242   -0.001590
  18 H :    0.015971   -0.000186
  19 H :    0.027342    0.001974
  20 O :   -0.282324    0.076789
  21 C :    0.132259   -0.031578
  22 O :   -0.172941    0.544377
  23 C :    0.015725    0.120709
  24 H :    0.054374   -0.001819
  25 H :    0.047549   -0.002990
  26 H :    0.056133    0.009064
Sum of atomic charges         :    0.0000000

LOEWDIN ATOMIC CHARGES AND SPIN POPULATIONS
-------------------------------------------
   0 C :    0.080619    0.039656
   1 C :    0.074838    0.017626
   2 O :   -0.147773    0.065996
   3 H :    0.033606    0.013988
   4 H :    0.015906   -0.000718
   5 C :   -0.020175    0.041049
   6 C :   -0.012241    0.026614
   7 C :   -0.001675    0.037350
   8 C :   -0.020696   -0.003800
   9 H :    0.030509   -0.000236
  10 C :   -0.019683   -0.012024
  11 H :    0.032605    0.000937
  12 C :   -0.007212    0.060912
  13 H :    0.030080    0.000411
  14 H :    0.031225   -0.000038
  15 H :    0.030026   -0.000266
  16 C :   -0.061004    0.001360
  17 H :    0.032145   -0.000515
  18 H :    0.032947   -0.000166
  19 H :    0.034917    0.001523
  20 O :   -0.229499    0.070775
  21 C :    0.044909    0.011862
  22 O :   -0.079131    0.517334
  23 C :   -0.042357    0.105100
  24 H :    0.048599   -0.000144
  25 H :    0.041642   -0.001294
  26 H :    0.046875    0.006707

  Mayer bond orders larger than 0.100000
B(  0-C ,  1-C ) :   1.0064 B(  0-C ,  2-O ) :   0.9835 B(  0-C ,  3-H ) :   0.8774
B(  0-C ,  5-C ) :   1.0170 B(  1-C ,  2-O ) :   0.9400 B(  1-C ,  4-H ) :   0.9310
B(  1-C , 16-C ) :   1.0814 B(  3-H , 22-O ) :   0.1009 B(  5-C ,  6-C ) :   1.3434
B(  5-C ,  7-C ) :   1.3364 B(  6-C ,  8-C ) :   1.3849 B(  6-C ,  9-H ) :   0.9828
B(  7-C , 10-C ) :   1.3850 B(  7-C , 11-H ) :   0.9591 B(  8-C , 12-C ) :   1.3530
B(  8-C , 13-H ) :   0.9845 B( 10-C , 12-C ) :   1.3581 B( 10-C , 14-H ) :   0.9858
B( 11-H , 20-O ) :   0.1226 B( 12-C , 15-H ) :   0.9854 B( 16-C , 17-H ) :   0.9462
B( 16-C , 18-H ) :   0.9551 B( 16-C , 19-H ) :   0.9473 B( 20-O , 21-C ) :   1.8470
B( 20-O , 22-O ) :   0.1647 B( 21-C , 22-O ) :   1.4725 B( 21-C , 23-C ) :   0.9353
B( 23-C , 24-H ) :   0.9556 B( 23-C , 25-H ) :   0.9587 B( 23-C , 26-H ) :   0.9608

Dispersion correction           -0.045309743
FINAL SINGLE POINT ENERGY      -651.759217109338
Dispersion correction             ... done (  0.0 sec)

DIPOLE MOMENT
-------------

Method             : SCF
Type of density    : Electron Density
Multiplicity       :   2
Irrep              :   0
Energy             :  -651.7139073661001021 Eh
Basis              : AO
                                X                 Y                 Z
Electronic contribution:     -5.218691845      -0.788861944       3.920195572
Nuclear contribution   :      5.389984062       0.868317453      -4.680032420
                        -----------------------------------------
Total Dipole Moment    :      0.171292217       0.079455509      -0.759836848
                        -----------------------------------------
Magnitude (a.u.)       :      0.782947148
Magnitude (Debye)      :      1.990093495

Rotational constants in cm-1:             0.030589             0.014058             0.010140
Rotational constants in MHz :           917.024501           421.453303           303.996164

                             ****ORCA TERMINATED NORMALLY****
TOTAL RUN TIME: 0 days 0 hours 1 minutes 31 seconds 889 msec
