                         Program Version 6.1.0  -  RELEASE   -
|  1> ! B3LYP def2-SVP d3 EnGrad
|  2> %pal nprocs 6 end
|  3> *xyz 0 1
|  4> N   1.25000214044382 -1.27972800997024 -0.04168204524008
|  5> B   1.04659253299832 0.19397775478648 -0.59632592734836
|  6> B   -0.91393686711475 0.26269517581186 0.33685327058425
|  7> N   -2.03036122895122 1.22204319603859 0.43827021885093
|  8> H   0.362125524022 -1.46495033245128 0.50330074934251
|  9> H   2.0485761299306 -1.36798070672623 0.58883857458246
| 10> H   1.32959019553635 -1.98119072776428 -0.77963355104233
| 11> H   0.14533805810326 0.68433088903026 0.83635986380553
| 12> H   1.8470429095992 0.96251560993174 -0.11132867672619
| 13> H   1.015753248003 0.21680037274364 -1.80663909254918
| 14> H   -0.67083000276189 -0.08344587981102 -0.83432639715827
| 15> H   -1.00485362446353 -0.8745478494034 0.90380982539767
| 16> H   -2.54677862643493 1.43748465392747 -0.40725589944338
| 17> H   -1.87826038891025 2.07199585385639 0.96975908694445
| 18> *
| 19>
| 20>                          ****END OF INPUT****

CARTESIAN COORDINATES (ANGSTROEM)
---------------------------------
  N      1.250002   -1.279728   -0.041682
  B      1.046593    0.193978   -0.596326
  B     -0.913937    0.262695    0.336853
  N     -2.030361    1.222043    0.438270
  H      0.362126   -1.464950    0.503301
  H      2.048576   -1.367981    0.588839
  H      1.329590   -1.981191   -0.779634
  H      0.145338    0.684331    0.836360
  H      1.847043    0.962516   -0.111329
  H      1.015753    0.216800   -1.806639
  H     -0.670830   -0.083446   -0.834326
  H     -1.004854   -0.874548    0.903810
  H     -2.546779    1.437485   -0.407256
  H     -1.878260    2.071996    0.969759

 Total Charge           Charge          ....    0
 Multiplicity           Mult            ....    1
 Number of Electrons    NEL             ....   34
 Basis Dimension        Dim             ....  106

ORBITAL ENERGIES
----------------

  NO   OCC          E(Eh)            E(eV)
   0   2.0000     -14.416359      -392.2891
   1   2.0000     -14.250337      -387.7714
   2   2.0000      -6.772377      -184.2857
   3   2.0000      -6.699679      -182.3075
   4   2.0000      -0.950490       -25.8642
   5   2.0000      -0.781208       -21.2578
   6   2.0000      -0.590663       -16.0728
   7   2.0000      -0.567147       -15.4329
   8   2.0000      -0.536428       -14.5969
   9   2.0000      -0.471028       -12.8173
  10   2.0000      -0.435878       -11.8608
  11   2.0000      -0.389813       -10.6074
  12   2.0000      -0.353036        -9.6066
  13   2.0000      -0.352507        -9.5922
  14   2.0000      -0.306430        -8.3384
  15   2.0000      -0.248335        -6.7575
  16   2.0000      -0.190742        -5.1904
  17   0.0000       0.009857         0.2682
  18   0.0000       0.046129         1.2552
  19   0.0000       0.065582         1.7846
  20   0.0000       0.088038         2.3956
  21   0.0000       0.104623         2.8469

MULLIKEN ATOMIC CHARGES
-----------------------
   0 N :    0.056331
   1 B :   -0.110748
   2 B :   -0.170664
   3 N :   -0.120157
   4 H :    0.131049
   5 H :    0.157108
   6 H :    0.157054
   7 H :   -0.035852
   8 H :   -0.035641
   9 H :   -0.035656
  10 H :   -0.038972
  11 H :   -0.120681
  12 H :    0.083335
  13 H :    0.083494
Sum of atomic charges:   -0.0000000

LOEWDIN ATOMIC CHARGES
----------------------
   0 N :    0.233504
   1 B :   -0.136944
   2 B :   -0.371987
   3 N :   -0.087146
   4 H :    0.103015
   5 H :    0.113796
   6 H :    0.114059
   7 H :    0.037920
   8 H :   -0.047584
   9 H :   -0.047301
  10 H :    0.037622
  11 H :   -0.063130
  12 H :    0.057073
  13 H :    0.057103

  Mayer bond orders larger than 0.100000
B(  0-N ,  1-B ) :   0.9044 B(  0-N ,  4-H ) :   0.8762 B(  0-N ,  5-H ) :   0.9539
B(  0-N ,  6-H ) :   0.9546 B(  1-B ,  2-B ) :   0.1832 B(  1-B ,  7-H ) :   0.2519
B(  1-B ,  8-H ) :   0.9656 B(  1-B ,  9-H ) :   0.9673 B(  1-B , 10-H ) :   0.2503
B(  2-B ,  3-N ) :   1.3454 B(  2-B ,  7-H ) :   0.7295 B(  2-B , 10-H ) :   0.7283
B(  2-B , 11-H ) :   0.7891 B(  3-N , 12-H ) :   0.9758 B(  3-N , 13-H ) :   0.9758
B(  4-H , 11-H ) :   0.1207

Dispersion correction           -0.015294747
FINAL SINGLE POINT ENERGY      -164.970923424385
Dispersion correction             ... done (  0.0 sec)

DIPOLE MOMENT
-------------

Method             : SCF
Type of density    : Electron Density
Multiplicity       :   1
Irrep              :   0
Energy             :  -164.9556286777259970 Eh
Basis              : AO
                                X                 Y                 Z
Electronic contribution:     -0.299816489      -0.073609864       0.159842360
Nuclear contribution   :      1.670218735      -1.211679970      -0.275004903
                        -----------------------------------------
Total Dipole Moment    :      1.370402245      -1.285289834      -0.115162542
                        -----------------------------------------
Magnitude (a.u.)       :      1.882348183
Magnitude (Debye)      :      4.784548848

Rotational constants in cm-1:             0.589939             0.095413             0.088046
Rotational constants in MHz :         17685.926147          2860.409229          2639.541389

                             ****ORCA TERMINATED NORMALLY****
TOTAL RUN TIME: 0 days 0 hours 0 minutes 13 seconds 216 msec
