                         Program Version 6.1.0  -  RELEASE   -
|  1> ! B3LYP def2-SVP d3 EnGrad
|  2> %pal nprocs 6 end
|  3> *xyz 0 1
|  4> C   1.18125971966678 -0.05709625862181 -0.01097925877305
|  5> O   1.45684999758818 0.06950701596507 1.28215332729545
|  6> C   -0.73635277590673 0.29631778919767 -0.27422299764215
|  7> O   -1.46975022792721 -0.87637911116133 -0.2362693298731
|  8> H   1.59611317178726 0.68844309282303 -0.73158246018238
|  9> H   1.10361967225358 -1.06833198899122 -0.47414227612204
| 10> H   0.24774988339482 0.3279790402555 0.74769762742766
| 11> H   -0.63109206100469 0.64145738754521 -1.31073241506436
| 12> H   -1.58167707088696 -1.15686062201207 0.68279161584915
| 13> H   -1.16672030896503 1.13496365499994 0.32528616708482
| 14> *
| 15>
| 16>                          ****END OF INPUT****

CARTESIAN COORDINATES (ANGSTROEM)
---------------------------------
  C      1.181260   -0.057096   -0.010979
  O      1.456850    0.069507    1.282153
  C     -0.736353    0.296318   -0.274223
  O     -1.469750   -0.876379   -0.236269
  H      1.596113    0.688443   -0.731582
  H      1.103620   -1.068332   -0.474142
  H      0.247750    0.327979    0.747698
  H     -0.631092    0.641457   -1.310732
  H     -1.581677   -1.156861    0.682792
  H     -1.166720    1.134964    0.325286

 Total Charge           Charge          ....    0
 Multiplicity           Mult            ....    1
 Number of Electrons    NEL             ....   34
 Basis Dimension        Dim             ....   86

ORBITAL ENERGIES
----------------

  NO   OCC          E(Eh)            E(eV)
   0   2.0000     -19.163893      -521.4760
   1   2.0000     -19.076778      -519.1055
   2   2.0000     -10.285334      -279.8782
   3   2.0000     -10.264112      -279.3007
   4   2.0000      -1.046389       -28.4737
   5   2.0000      -0.991059       -26.9681
   6   2.0000      -0.717880       -19.5345
   7   2.0000      -0.620823       -16.8935
   8   2.0000      -0.562412       -15.3040
   9   2.0000      -0.498928       -13.5765
  10   2.0000      -0.462059       -12.5733
  11   2.0000      -0.455299       -12.3893
  12   2.0000      -0.404151       -10.9975
  13   2.0000      -0.373684       -10.1685
  14   2.0000      -0.332544        -9.0490
  15   2.0000      -0.232420        -6.3245
  16   2.0000      -0.224730        -6.1152
  17   0.0000       0.004107         0.1117
  18   0.0000       0.034860         0.9486
  19   0.0000       0.063717         1.7338
  20   0.0000       0.095120         2.5883
  21   0.0000       0.109366         2.9760

MULLIKEN ATOMIC CHARGES
-----------------------
   0 C :    0.226407
   1 O :   -0.427512
   2 C :    0.012249
   3 O :   -0.272907
   4 H :    0.008578
   5 H :    0.017577
   6 H :    0.177397
   7 H :    0.044511
   8 H :    0.179501
   9 H :    0.034200
Sum of atomic charges:    0.0000000

LOEWDIN ATOMIC CHARGES
----------------------
   0 C :    0.171130
   1 O :   -0.359677
   2 C :    0.039588
   3 O :   -0.110703
   4 H :   -0.001296
   5 H :    0.001878
   6 H :    0.109627
   7 H :    0.032889
   8 H :    0.090727
   9 H :    0.025836

  Mayer bond orders larger than 0.100000
B(  0-C ,  1-O ) :   1.1952 B(  0-C ,  2-C ) :   0.4951 B(  0-C ,  4-H ) :   0.8995
B(  0-C ,  5-H ) :   0.8913 B(  0-C ,  6-H ) :   0.3700 B(  1-O ,  2-C ) :   0.1717
B(  1-O ,  6-H ) :   0.4492 B(  2-C ,  3-O ) :   1.0764 B(  2-C ,  6-H ) :   0.2567
B(  2-C ,  7-H ) :   0.9320 B(  2-C ,  9-H ) :   0.8940 B(  3-O ,  8-H ) :   0.9724

Dispersion correction           -0.009084446
FINAL SINGLE POINT ENERGY      -229.811953177786
Dispersion correction             ... done (  0.1 sec)

DIPOLE MOMENT
-------------

Method             : SCF
Type of density    : Electron Density
Multiplicity       :   1
Irrep              :   0
Energy             :  -229.8028687322452583 Eh
Basis              : AO
                                X                 Y                 Z
Electronic contribution:      0.046300908      -1.168400012       1.298656661
Nuclear contribution   :     -0.834155922       1.383410023      -1.841506766
                        -----------------------------------------
Total Dipole Moment    :     -0.787855014       0.215010011      -0.542850105
                        -----------------------------------------
Magnitude (a.u.)       :      0.980627893
Magnitude (Debye)      :      2.492558016

Rotational constants in cm-1:             0.603856             0.131287             0.124975
Rotational constants in MHz :         18103.143421          3935.876089          3746.661745

                             ****ORCA TERMINATED NORMALLY****
TOTAL RUN TIME: 0 days 0 hours 0 minutes 9 seconds 42 msec
