                         Program Version 6.1.0  -  RELEASE   -
|  1> ! B3LYP def2-SVP d3 EnGrad
|  2> %pal nprocs 6 end
|  3> *xyz 0 1
|  4> C   -2.06022332738679 -0.1540208571833 -0.02252747960503
|  5> C   -0.58133234753629 0.29729098155163 -0.09420676743365
|  6> O   -0.1425021953389 0.87243552518065 -1.06308398933353
|  7> F   -2.70171205319535 0.13403567738432 -1.15263246911655
|  8> F   -2.68857221320802 0.46545858182956 0.98858430065338
|  9> F   -2.14208443383664 -1.47617990231419 0.18511829262325
| 10> O   0.06227871864062 -0.01998146343178 0.99946252908153
| 11> C   3.09230604226747 0.28187824431351 -0.46812790274408
| 12> C   3.37867917208382 -1.17470438905977 -0.13063704382244
| 13> N   2.47207627660852 0.9709594163065 0.67915598086611
| 14> H   2.37284908080779 0.34986447152514 -1.29884088188396
| 15> H   4.02096543007232 0.78800690457713 -0.79271579499618
| 16> H   3.80228478329133 -1.69844198913022 -1.00129949375629
| 17> H   4.10441055396989 -1.26199482372396 0.69647486840627
| 18> H   2.45583764565444 -1.69543789772442 0.16974435317292
| 19> H   3.0992309200121 0.9761961221939 1.48687410675532
| 20> H   2.27907224418819 1.94667198706827 0.44435651264415
| 21> H   1.03752470290546 0.35034841063703 0.9383238784888
| 22> *
| 23>
| 24>                          ****END OF INPUT****

CARTESIAN COORDINATES (ANGSTROEM)
---------------------------------
  C     -2.060223   -0.154021   -0.022527
  C     -0.581332    0.297291   -0.094207
  O     -0.142502    0.872436   -1.063084
  F     -2.701712    0.134036   -1.152632
  F     -2.688572    0.465459    0.988584
  F     -2.142084   -1.476180    0.185118
  O      0.062279   -0.019981    0.999463
  C      3.092306    0.281878   -0.468128
  C      3.378679   -1.174704   -0.130637
  N      2.472076    0.970959    0.679156
  H      2.372849    0.349864   -1.298841
  H      4.020965    0.788007   -0.792716
  H      3.802285   -1.698442   -1.001299
  H      4.104411   -1.261995    0.696475
  H      2.455838   -1.695438    0.169744
  H      3.099231    0.976196    1.486874
  H      2.279072    1.946672    0.444357
  H      1.037525    0.350348    0.938324

 Total Charge           Charge          ....    0
 Multiplicity           Mult            ....    1
 Number of Electrons    NEL             ....   82
 Basis Dimension        Dim             ....  180

ORBITAL ENERGIES
----------------

  NO   OCC          E(Eh)            E(eV)
   0   2.0000     -24.710658      -672.4112
   1   2.0000     -24.710426      -672.4049
   2   2.0000     -24.710173      -672.3980
   3   2.0000     -19.158980      -521.3424
   4   2.0000     -19.126340      -520.4542
   5   2.0000     -14.358378      -390.7113
   6   2.0000     -10.422839      -283.6199
   7   2.0000     -10.319432      -280.8060
   8   2.0000     -10.230512      -278.3864
   9   2.0000     -10.195280      -277.4277
  10   2.0000      -1.292185       -35.1621
  11   2.0000      -1.200385       -32.6641
  12   2.0000      -1.198640       -32.6167
  13   2.0000      -1.088620       -29.6229
  14   2.0000      -1.002051       -27.2672
  15   2.0000      -0.913475       -24.8569
  16   2.0000      -0.746699       -20.3187
  17   2.0000      -0.727441       -19.7947
  18   2.0000      -0.637824       -17.3561
  19   2.0000      -0.621404       -16.9093
  20   2.0000      -0.587383       -15.9835
  21   2.0000      -0.586456       -15.9583
  22   2.0000      -0.556866       -15.1531
  23   2.0000      -0.526926       -14.3384
  24   2.0000      -0.495138       -13.4734
  25   2.0000      -0.474119       -12.9014
  26   2.0000      -0.465437       -12.6652
  27   2.0000      -0.461232       -12.5508
  28   2.0000      -0.452605       -12.3160
  29   2.0000      -0.446939       -12.1618
  30   2.0000      -0.434999       -11.8369
  31   2.0000      -0.422074       -11.4852
  32   2.0000      -0.414514       -11.2795
  33   2.0000      -0.401074       -10.9138
  34   2.0000      -0.394397       -10.7321
  35   2.0000      -0.389994       -10.6123
  36   2.0000      -0.377105       -10.2615
  37   2.0000      -0.362881        -9.8745
  38   2.0000      -0.315570        -8.5871
  39   2.0000      -0.292657        -7.9636
  40   2.0000      -0.279473        -7.6048
  41   0.0000      -0.005989        -0.1630
  42   0.0000       0.029980         0.8158
  43   0.0000       0.073091         1.9889
  44   0.0000       0.083888         2.2827
  45   0.0000       0.101407         2.7594

MULLIKEN ATOMIC CHARGES
-----------------------
   0 C :    0.524790
   1 C :    0.082531
   2 O :   -0.234205
   3 F :   -0.152609
   4 F :   -0.172567
   5 F :   -0.170641
   6 O :   -0.227223
   7 C :    0.054526
   8 C :   -0.023755
   9 N :   -0.242628
  10 H :    0.040837
  11 H :    0.009596
  12 H :    0.027372
  13 H :    0.012103
  14 H :    0.030073
  15 H :    0.118570
  16 H :    0.127878
  17 H :    0.195353
Sum of atomic charges:   -0.0000000

LOEWDIN ATOMIC CHARGES
----------------------
   0 C :    0.136276
   1 C :    0.010676
   2 O :   -0.181391
   3 F :   -0.043402
   4 F :   -0.060362
   5 F :   -0.059158
   6 O :   -0.052252
   7 C :    0.022034
   8 C :   -0.061799
   9 N :   -0.014837
  10 H :    0.027753
  11 H :    0.011459
  12 H :    0.033408
  13 H :    0.021399
  14 H :    0.029217
  15 H :    0.067901
  16 H :    0.074536
  17 H :    0.038543

  Mayer bond orders larger than 0.100000
B(  0-C ,  1-C ) :   0.8555 B(  0-C ,  3-F ) :   1.1669 B(  0-C ,  4-F ) :   1.1353
B(  0-C ,  5-F ) :   1.1379 B(  1-C ,  2-O ) :   2.0332 B(  1-C ,  6-O ) :   1.3401
B(  2-O ,  6-O ) :   0.1084 B(  6-O , 17-H ) :   0.7675 B(  7-C ,  8-C ) :   1.1146
B(  7-C ,  9-N ) :   1.0014 B(  7-C , 10-H ) :   0.9424 B(  7-C , 11-H ) :   0.9526
B(  8-C , 12-H ) :   0.9661 B(  8-C , 13-H ) :   0.9690 B(  8-C , 14-H ) :   0.9695
B(  9-N , 15-H ) :   0.9584 B(  9-N , 16-H ) :   0.9546 B(  9-N , 17-H ) :   0.2961

Dispersion correction           -0.021997902
FINAL SINGLE POINT ENERGY      -661.218054992841
Dispersion correction             ... done (  0.0 sec)

DIPOLE MOMENT
-------------

Method             : SCF
Type of density    : Electron Density
Multiplicity       :   1
Irrep              :   0
Energy             :  -661.1960570908084946 Eh
Basis              : AO
                                X                 Y                 Z
Electronic contribution:    -27.920703261      -0.172961175      -0.086619263
Nuclear contribution   :     29.940008606       0.560671663       0.558033903
                        -----------------------------------------
Total Dipole Moment    :      2.019305345       0.387710488       0.471414640
                        -----------------------------------------
Magnitude (a.u.)       :      2.109536741
Magnitude (Debye)      :      5.362016270

Rotational constants in cm-1:             0.085333             0.018405             0.018203
Rotational constants in MHz :          2558.218481           551.760440           545.718240

                             ****ORCA TERMINATED NORMALLY****
TOTAL RUN TIME: 0 days 0 hours 0 minutes 25 seconds 24 msec
