                         Program Version 6.1.0  -  RELEASE   -
|  1> ! B3LYP def2-SVP d3 EnGrad
|  2> %pal nprocs 6 end
|  3> *xyz 0 1
|  4> C   2.26236236979656 0.65974633825918 0.09737856396395
|  5> C   0.78624040891423 0.41639386238362 -0.07589698301509
|  6> H   2.68831570285412 1.12244079381251 -0.80945630502312
|  7> H   2.80823815790037 -0.27310649142933 0.29944468410943
|  8> H   2.44686124212364 1.36024737000609 0.9298162488783
|  9> C   0.19736995393438 -0.75521010056032 -0.02731342998244
| 10> O   -2.33351862629172 1.13481537092059 -0.22508774938584
| 11> C   -0.41411380521027 -1.91616550506752 0.01328765453556
| 12> H   -0.80242195970826 -2.32888482983974 0.95247729850685
| 13> H   -0.54428379054378 -2.52692159735108 -0.88848454900271
| 14> H   -2.16624914561671 1.04254583086801 0.72306967234594
| 15> H   -2.0606529477946 0.26898111677661 -0.56284683952221
| 16> H   0.13456043964205 1.28036384122137 -0.26420626640862
| 17> *
| 18>
| 19>                          ****END OF INPUT****

CARTESIAN COORDINATES (ANGSTROEM)
---------------------------------
  C      2.262362    0.659746    0.097379
  C      0.786240    0.416394   -0.075897
  H      2.688316    1.122441   -0.809456
  H      2.808238   -0.273106    0.299445
  H      2.446861    1.360247    0.929816
  C      0.197370   -0.755210   -0.027313
  O     -2.333519    1.134815   -0.225088
  C     -0.414114   -1.916166    0.013288
  H     -0.802422   -2.328885    0.952477
  H     -0.544284   -2.526922   -0.888485
  H     -2.166249    1.042546    0.723070
  H     -2.060653    0.268981   -0.562847
  H      0.134560    1.280364   -0.264206

 Total Charge           Charge          ....    0
 Multiplicity           Mult            ....    1
 Number of Electrons    NEL             ....   40
 Basis Dimension        Dim             ....  110

ORBITAL ENERGIES
----------------

  NO   OCC          E(Eh)            E(eV)
   0   2.0000     -19.117132      -520.2036
   1   2.0000     -10.203494      -277.6512
   2   2.0000     -10.199767      -277.5498
   3   2.0000     -10.198433      -277.5135
   4   2.0000     -10.193635      -277.3829
   5   2.0000      -0.975761       -26.5518
   6   2.0000      -0.796822       -21.6826
   7   2.0000      -0.732652       -19.9365
   8   2.0000      -0.649432       -17.6719
   9   2.0000      -0.510505       -13.8916
  10   2.0000      -0.504392       -13.7252
  11   2.0000      -0.466559       -12.6957
  12   2.0000      -0.444704       -12.1010
  13   2.0000      -0.422211       -11.4889
  14   2.0000      -0.412999       -11.2383
  15   2.0000      -0.377844       -10.2817
  16   2.0000      -0.366801        -9.9812
  17   2.0000      -0.289540        -7.8788
  18   2.0000      -0.272530        -7.4159
  19   2.0000      -0.257818        -7.0156
  20   0.0000       0.005168         0.1406
  21   0.0000       0.013688         0.3725
  22   0.0000       0.056450         1.5361
  23   0.0000       0.084658         2.3037
  24   0.0000       0.094830         2.5804

MULLIKEN ATOMIC CHARGES
-----------------------
   0 C :    0.066391
   1 C :   -0.234278
   2 H :    0.029338
   3 H :    0.019456
   4 H :    0.026197
   5 C :    0.128307
   6 O :   -0.279436
   7 C :   -0.208951
   8 H :    0.053444
   9 H :    0.056848
  10 H :    0.150482
  11 H :    0.157230
  12 H :    0.034972
Sum of atomic charges:    0.0000000

LOEWDIN ATOMIC CHARGES
----------------------
   0 C :   -0.042393
   1 C :   -0.076311
   2 H :    0.035332
   3 H :    0.031104
   4 H :    0.033913
   5 C :    0.001372
   6 O :   -0.131687
   7 C :   -0.111255
   8 H :    0.038828
   9 H :    0.040477
  10 H :    0.074884
  11 H :    0.069923
  12 H :    0.035814

  Mayer bond orders larger than 0.100000
B(  0-C ,  1-C ) :   1.0548 B(  0-C ,  2-H ) :   0.9567 B(  0-C ,  3-H ) :   0.9708
B(  0-C ,  4-H ) :   0.9573 B(  1-C ,  5-C ) :   1.8411 B(  1-C , 12-H ) :   0.9107
B(  5-C ,  7-C ) :   1.9290 B(  6-O , 10-H ) :   1.0031 B(  6-O , 11-H ) :   0.9913
B(  7-C ,  8-H ) :   0.9356 B(  7-C ,  9-H ) :   0.9350

Dispersion correction           -0.013493511
FINAL SINGLE POINT ENERGY      -232.096516227687
Dispersion correction             ... done (  0.0 sec)

DIPOLE MOMENT
-------------

Method             : SCF
Type of density    : Electron Density
Multiplicity       :   1
Irrep              :   0
Energy             :  -232.0830227168084434 Eh
Basis              : AO
                                X                 Y                 Z
Electronic contribution:     -1.936932663      -0.528771450      -0.297857977
Nuclear contribution   :      2.398055111       0.076277744       0.679310527
                        -----------------------------------------
Total Dipole Moment    :      0.461122447      -0.452493706       0.381452551
                        -----------------------------------------
Magnitude (a.u.)       :      0.750260297
Magnitude (Debye)      :      1.907010123

Rotational constants in cm-1:             0.167172             0.086319             0.058688
Rotational constants in MHz :          5011.679418          2587.786675          1759.433033

                             ****ORCA TERMINATED NORMALLY****
TOTAL RUN TIME: 0 days 0 hours 0 minutes 12 seconds 446 msec
