                         Program Version 6.1.0  -  RELEASE   -
|  1> ! B3LYP def2-SVP d3 EnGrad
|  2> %pal nprocs 6 end
|  3> *xyz 0 1
|  4> C   -7.95315e-09 -5.1192e-09 -0.74348494274856
|  5> H   -7.96454e-09 -5.11033e-09 1.43454866774768
|  6> N   1.591769e-08 1.022953e-08 0.42970727500088
|  7> *
|  8>
|  9>                          ****END OF INPUT****

CARTESIAN COORDINATES (ANGSTROEM)
---------------------------------
  C     -0.000000   -0.000000   -0.743485
  H     -0.000000   -0.000000    1.434549
  N      0.000000    0.000000    0.429707

 Total Charge           Charge          ....    0
 Multiplicity           Mult            ....    1
 Number of Electrons    NEL             ....   14
 Basis Dimension        Dim             ....   33

ORBITAL ENERGIES
----------------

  NO   OCC          E(Eh)            E(eV)
   0   2.0000     -14.370464      -391.0402
   1   2.0000     -10.236221      -278.5417
   2   2.0000      -0.934595       -25.4316
   3   2.0000      -0.662031       -18.0148
   4   2.0000      -0.377259       -10.2657
   5   2.0000      -0.377259       -10.2657
   6   2.0000      -0.312666        -8.5081
   7   0.0000       0.020410         0.5554
   8   0.0000       0.020410         0.5554
   9   0.0000       0.045745         1.2448
  10   0.0000       0.264182         7.1888
  11   0.0000       0.393640        10.7115

MULLIKEN ATOMIC CHARGES
-----------------------
   0 C :   -0.116408
   1 H :    0.158851
   2 N :   -0.042444
Sum of atomic charges:   -0.0000000

LOEWDIN ATOMIC CHARGES
----------------------
   0 C :   -0.096723
   1 H :    0.092050
   2 N :    0.004673

  Mayer bond orders larger than 0.100000
B(  0-C ,  2-N ) :   2.4369 B(  1-H ,  2-N ) :   0.9497

Dispersion correction           -0.001606938
FINAL SINGLE POINT ENERGY       -93.280242542188
Dispersion correction             ... done (  0.1 sec)

DIPOLE MOMENT
-------------

Method             : SCF
Type of density    : Electron Density
Multiplicity       :   1
Irrep              :   0
Energy             :   -93.2786356039671887 Eh
Basis              : AO
                                X                 Y                 Z
Electronic contribution:      0.000000002       0.000000002      -0.168306885
Nuclear contribution   :     -0.000000012      -0.000000007       1.399382454
                        -----------------------------------------
Total Dipole Moment    :     -0.000000010      -0.000000005       1.231075569
                        -----------------------------------------
Magnitude (a.u.)       :      1.231075569
Magnitude (Debye)      :      3.129145420

Rotational constants in cm-1:             0.000000             1.502374             1.502374
Rotational constants in MHz :             0.000000         45040.040603         45040.040603

                             ****ORCA TERMINATED NORMALLY****
TOTAL RUN TIME: 0 days 0 hours 0 minutes 4 seconds 292 msec
