                         Program Version 6.1.0  -  RELEASE   -
|  1> ! B3LYP def2-SVP d3 EnGrad
|  2> %pal nprocs 6 end
|  3> *xyz 0 1
|  4> C   1.0175141244493 -0.65421322672724 0.03558046501072
|  5> O   0.81221450687209 -0.10883321565996 -1.01992779185385
|  6> N   -2.03338209600128 0.12500615061095 0.1473242533105
|  7> H   -2.40811143167995 1.04347421039877 0.39274383473752
|  8> H   2.02711125534512 -1.06427772208828 0.29572561832012
|  9> H   0.20789875566169 -0.77240868223693 0.79371842366564
| 10> H   -2.81140493336187 -0.386146768392 -0.27436663381333
| 11> H   -1.3590271812851 0.2878162540947 -0.60655816937731
| 12> *
| 13>
| 14>                          ****END OF INPUT****

CARTESIAN COORDINATES (ANGSTROEM)
---------------------------------
  C      1.017514   -0.654213    0.035580
  O      0.812215   -0.108833   -1.019928
  N     -2.033382    0.125006    0.147324
  H     -2.408111    1.043474    0.392744
  H      2.027111   -1.064278    0.295726
  H      0.207899   -0.772409    0.793718
  H     -2.811405   -0.386147   -0.274367
  H     -1.359027    0.287816   -0.606558

 Total Charge           Charge          ....    0
 Multiplicity           Mult            ....    1
 Number of Electrons    NEL             ....   26
 Basis Dimension        Dim             ....   67

ORBITAL ENERGIES
----------------

  NO   OCC          E(Eh)            E(eV)
   0   2.0000     -19.148229      -521.0498
   1   2.0000     -14.294183      -388.9645
   2   2.0000     -10.277658      -279.6693
   3   2.0000      -1.044630       -28.4258
   4   2.0000      -0.825270       -22.4567
   5   2.0000      -0.613944       -16.7063
   6   2.0000      -0.492193       -13.3932
   7   2.0000      -0.449385       -12.2284
   8   2.0000      -0.444268       -12.0892
   9   2.0000      -0.431038       -11.7291
  10   2.0000      -0.397821       -10.8253
  11   2.0000      -0.270379        -7.3574
  12   2.0000      -0.245854        -6.6900
  13   0.0000      -0.038935        -1.0595
  14   0.0000       0.062573         1.7027
  15   0.0000       0.092176         2.5082
  16   0.0000       0.142507         3.8778
  17   0.0000       0.163551         4.4505

MULLIKEN ATOMIC CHARGES
-----------------------
   0 C :    0.162783
   1 O :   -0.226462
   2 N :   -0.249190
   3 H :    0.080929
   4 H :    0.019280
   5 H :    0.040922
   6 H :    0.081089
   7 H :    0.090649
Sum of atomic charges:    0.0000000

LOEWDIN ATOMIC CHARGES
----------------------
   0 C :    0.140788
   1 O :   -0.125573
   2 N :   -0.155981
   3 H :    0.054069
   4 H :   -0.009708
   5 H :   -0.006297
   6 H :    0.054155
   7 H :    0.048546

  Mayer bond orders larger than 0.100000
B(  0-C ,  1-O ) :   2.0859 B(  0-C ,  4-H ) :   0.9147 B(  0-C ,  5-H ) :   0.9053
B(  2-N ,  3-H ) :   0.9940 B(  2-N ,  6-H ) :   0.9938 B(  2-N ,  7-H ) :   0.9624

Dispersion correction           -0.005064493
FINAL SINGLE POINT ENERGY      -170.842922934733
Dispersion correction             ... done (  0.1 sec)

DIPOLE MOMENT
-------------

Method             : SCF
Type of density    : Electron Density
Multiplicity       :   1
Irrep              :   0
Energy             :  -170.8378584412967598 Eh
Basis              : AO
                                X                 Y                 Z
Electronic contribution:      3.151204888      -0.109866619      -1.617595885
Nuclear contribution   :     -3.308907652       0.038341840       1.873439533
                        -----------------------------------------
Total Dipole Moment    :     -0.157702764      -0.071524779       0.255843649
                        -----------------------------------------
Magnitude (a.u.)       :      0.308936771
Magnitude (Debye)      :      0.785254867

Rotational constants in cm-1:             1.141616             0.156578             0.140766
Rotational constants in MHz :         34224.790300          4694.076895          4220.058657

                             ****ORCA TERMINATED NORMALLY****
TOTAL RUN TIME: 0 days 0 hours 0 minutes 6 seconds 489 msec
