                         Program Version 6.1.0  -  RELEASE   -
|  1> ! B3LYP def2-SVP d3 EnGrad
|  2> %pal nprocs 6 end
|  3> *xyz 0 1
|  4> N   0.67566851520979 -0.53062063434285 -0.4316011837712
|  5> B   1.56745119738078 0.70766753211528 0.27234583828644
|  6> N   -1.63513619775642 0.30979664007592 -0.01891140755771
|  7> B   -0.6214615824647 -0.57879515377646 0.30692857935991
|  8> H   -1.50469475701978 1.09071142567987 -0.65368707653278
|  9> H   1.05609393471569 1.73895416471054 -0.14566736714799
| 10> H   2.71904347327113 0.53905121254164 -0.10118867269991
| 11> H   1.21151863168906 -1.39271498683403 -0.33530551255232
| 12> H   0.59832160803399 -0.32296378696028 -1.42797952242034
| 13> H   -2.4977899524355 0.35396383057298 0.50911634066512
| 14> H   -0.75702326198382 -1.4042009637226 1.16959468872174
| 15> H   1.42594839135974 0.56584571994 1.48050129564907
| 16> *
| 17>
| 18>                          ****END OF INPUT****

CARTESIAN COORDINATES (ANGSTROEM)
---------------------------------
  N      0.675669   -0.530621   -0.431601
  B      1.567451    0.707668    0.272346
  N     -1.635136    0.309797   -0.018911
  B     -0.621462   -0.578795    0.306929
  H     -1.504695    1.090711   -0.653687
  H      1.056094    1.738954   -0.145667
  H      2.719043    0.539051   -0.101189
  H      1.211519   -1.392715   -0.335306
  H      0.598322   -0.322964   -1.427980
  H     -2.497790    0.353964    0.509116
  H     -0.757023   -1.404201    1.169595
  H      1.425948    0.565846    1.480501

 Total Charge           Charge          ....    0
 Multiplicity           Mult            ....    1
 Number of Electrons    NEL             ....   32
 Basis Dimension        Dim             ....   96

ORBITAL ENERGIES
----------------

  NO   OCC          E(Eh)            E(eV)
   0   2.0000     -14.370787      -391.0490
   1   2.0000     -14.341737      -390.2585
   2   2.0000      -6.787924      -184.7088
   3   2.0000      -6.689709      -182.0362
   4   2.0000      -0.912638       -24.8341
   5   2.0000      -0.867101       -23.5950
   6   2.0000      -0.556283       -15.1372
   7   2.0000      -0.546671       -14.8757
   8   2.0000      -0.520888       -14.1741
   9   2.0000      -0.496031       -13.4977
  10   2.0000      -0.456881       -12.4324
  11   2.0000      -0.375487       -10.2175
  12   2.0000      -0.342103        -9.3091
  13   2.0000      -0.310767        -8.4564
  14   2.0000      -0.269228        -7.3261
  15   2.0000      -0.264364        -7.1937
  16   0.0000       0.013553         0.3688
  17   0.0000       0.032127         0.8742
  18   0.0000       0.058269         1.5856
  19   0.0000       0.078606         2.1390
  20   0.0000       0.112826         3.0702

MULLIKEN ATOMIC CHARGES
-----------------------
   0 N :    0.003084
   1 B :   -0.123380
   2 N :   -0.043364
   3 B :   -0.086442
   4 H :    0.127337
   5 H :   -0.107050
   6 H :   -0.091516
   7 H :    0.150856
   8 H :    0.145628
   9 H :    0.131575
  10 H :   -0.012566
  11 H :   -0.094161
Sum of atomic charges:    0.0000000

LOEWDIN ATOMIC CHARGES
----------------------
   0 N :    0.173378
   1 B :   -0.330451
   2 N :    0.052631
   3 B :   -0.099567
   4 H :    0.088202
   5 H :   -0.060471
   6 H :   -0.058228
   7 H :    0.112965
   8 H :    0.108115
   9 H :    0.093024
  10 H :   -0.035186
  11 H :   -0.044412

  Mayer bond orders larger than 0.100000
B(  0-N ,  1-B ) :   0.7039 B(  0-N ,  3-B ) :   1.0357 B(  0-N ,  7-H ) :   0.9486
B(  0-N ,  8-H ) :   0.9420 B(  1-B ,  5-H ) :   0.9723 B(  1-B ,  6-H ) :   0.9701
B(  1-B , 11-H ) :   0.9323 B(  2-N ,  3-B ) :   1.5826 B(  2-N ,  4-H ) :   0.9403
B(  2-N ,  9-H ) :   0.9601 B(  3-B , 10-H ) :   0.9383

Dispersion correction           -0.012889361
FINAL SINGLE POINT ENERGY      -163.874566847077
Dispersion correction             ... done (  0.0 sec)

DIPOLE MOMENT
-------------

Method             : SCF
Type of density    : Electron Density
Multiplicity       :   1
Irrep              :   0
Energy             :  -163.8616774862638579 Eh
Basis              : AO
                                X                 Y                 Z
Electronic contribution:     -3.010026787      -1.938090759      -0.937494090
Nuclear contribution   :      1.489996653       1.052075524      -0.022577226
                        -----------------------------------------
Total Dipole Moment    :     -1.520030133      -0.886015234      -0.960071316
                        -----------------------------------------
Magnitude (a.u.)       :      2.004308243
Magnitude (Debye)      :      5.094546683

Rotational constants in cm-1:             0.496490             0.157831             0.140328
Rotational constants in MHz :         14884.387632          4731.654899          4206.939257

                             ****ORCA TERMINATED NORMALLY****
TOTAL RUN TIME: 0 days 0 hours 0 minutes 8 seconds 58 msec
