                         Program Version 6.1.0  -  RELEASE   -
|  1> ! B3LYP def2-SVP d3 EnGrad
|  2> %pal nprocs 6 end
|  3> *xyz 0 1
|  4> C   4.0864483501416 -0.27114278448212 0.03624156166422
|  5> C   2.65530488536183 -0.41976770371377 0.58457467790004
|  6> H   4.3878470178218 0.77776519745895 0.17593698848426
|  7> H   4.08785406876683 -0.49373004412406 -1.03868731839113
|  8> H   4.77257472312351 -0.9323160601001 0.57599547961983
|  9> O   1.743746051792 0.1020977028508 -0.09431208798601
| 10> O   0.42084047421359 -0.57699157608303 1.43884106619763
| 11> H   0.01906009964733 -0.06447625410225 0.70796510759767
| 12> O   2.50308546969192 -1.01571579517933 1.65560553938983
| 13> C   -1.43880611937393 1.02154525596345 -0.60455752438926
| 14> C   -1.38003208881007 -0.29265347903361 -0.89983952803984
| 15> C   -2.31795287150352 -1.37671901586166 -0.46287938413302
| 16> H   -0.53991960793375 -0.62114128162619 -1.52237423875165
| 17> H   -3.1415927365154 -1.00888652645022 0.16505771864629
| 18> H   -1.76467150997089 -2.14004374857572 0.10949794847253
| 19> H   -2.75547334247753 -1.88736636130115 -1.33821718403355
| 20> C   -2.47167686218655 1.73007490413433 0.21922026446581
| 21> H   -0.6436991621538 1.65572016940939 -1.01483891169398
| 22> H   -3.2202014060843 1.04995289869635 0.64921757016989
| 23> H   -3.00462080999697 2.48070739056775 -0.39096036394533
| 24> H   -1.9981146235537 2.28308711155221 1.04851261875576
| 25> *
| 26>
| 27>                          ****END OF INPUT****

CARTESIAN COORDINATES (ANGSTROEM)
---------------------------------
  C      4.086448   -0.271143    0.036242
  C      2.655305   -0.419768    0.584575
  H      4.387847    0.777765    0.175937
  H      4.087854   -0.493730   -1.038687
  H      4.772575   -0.932316    0.575995
  O      1.743746    0.102098   -0.094312
  O      0.420840   -0.576992    1.438841
  H      0.019060   -0.064476    0.707965
  O      2.503085   -1.015716    1.655606
  C     -1.438806    1.021545   -0.604558
  C     -1.380032   -0.292653   -0.899840
  C     -2.317953   -1.376719   -0.462879
  H     -0.539920   -0.621141   -1.522374
  H     -3.141593   -1.008887    0.165058
  H     -1.764672   -2.140044    0.109498
  H     -2.755473   -1.887366   -1.338217
  C     -2.471677    1.730075    0.219220
  H     -0.643699    1.655720   -1.014839
  H     -3.220201    1.049953    0.649218
  H     -3.004621    2.480707   -0.390960
  H     -1.998115    2.283087    1.048513

 Total Charge           Charge          ....    0
 Multiplicity           Mult            ....    1
 Number of Electrons    NEL             ....   72
 Basis Dimension        Dim             ....  186

ORBITAL ENERGIES
----------------

  NO   OCC          E(Eh)            E(eV)
   0   2.0000     -19.172621      -521.7135
   1   2.0000     -19.160913      -521.3950
   2   2.0000     -19.156803      -521.2831
   3   2.0000     -10.315580      -280.7012
   4   2.0000     -10.220203      -278.1059
   5   2.0000     -10.195861      -277.4435
   6   2.0000     -10.195119      -277.4233
   7   2.0000     -10.189135      -277.2605
   8   2.0000     -10.185919      -277.1729
   9   2.0000      -1.088927       -29.6312
  10   2.0000      -0.993506       -27.0347
  11   2.0000      -0.930819       -25.3289
  12   2.0000      -0.797551       -21.7025
  13   2.0000      -0.743169       -20.2227
  14   2.0000      -0.720794       -19.6138
  15   2.0000      -0.654382       -17.8066
  16   2.0000      -0.533362       -14.5135
  17   2.0000      -0.525658       -14.3039
  18   2.0000      -0.494274       -13.4499
  19   2.0000      -0.482089       -13.1183
  20   2.0000      -0.476932       -12.9780
  21   2.0000      -0.476071       -12.9546
  22   2.0000      -0.431895       -11.7525
  23   2.0000      -0.422963       -11.5094
  24   2.0000      -0.419425       -11.4131
  25   2.0000      -0.406492       -11.0612
  26   2.0000      -0.404433       -11.0052
  27   2.0000      -0.401033       -10.9127
  28   2.0000      -0.388517       -10.5721
  29   2.0000      -0.367687       -10.0053
  30   2.0000      -0.340754        -9.2724
  31   2.0000      -0.330594        -8.9959
  32   2.0000      -0.310514        -8.4495
  33   2.0000      -0.294264        -8.0073
  34   2.0000      -0.277107        -7.5405
  35   2.0000      -0.252846        -6.8803
  36   0.0000      -0.170328        -4.6349
  37   0.0000       0.009102         0.2477
  38   0.0000       0.018335         0.4989
  39   0.0000       0.059320         1.6142
  40   0.0000       0.067354         1.8328

MULLIKEN ATOMIC CHARGES
-----------------------
   0 C :    0.045920
   1 C :    0.096593
   2 H :    0.061173
   3 H :    0.052996
   4 H :    0.050802
   5 O :   -0.247334
   6 O :   -0.174295
   7 H :    0.204397
   8 O :   -0.150362
   9 C :   -0.127301
  10 C :   -0.128164
  11 C :    0.076696
  12 H :    0.016679
  13 H :    0.008438
  14 H :    0.034808
  15 H :    0.023202
  16 C :    0.076221
  17 H :    0.014005
  18 H :    0.010637
  19 H :    0.026686
  20 H :    0.028203
Sum of atomic charges:    0.0000000

LOEWDIN ATOMIC CHARGES
----------------------
   0 C :   -0.036089
   1 C :    0.030057
   2 H :    0.054211
   3 H :    0.046913
   4 H :    0.042628
   5 O :   -0.133867
   6 O :   -0.027317
   7 H :    0.026029
   8 O :   -0.078984
   9 C :   -0.040042
  10 C :   -0.028409
  11 C :   -0.057854
  12 H :    0.029763
  13 H :    0.025526
  14 H :    0.039302
  15 H :    0.035507
  16 C :   -0.057167
  17 H :    0.029477
  18 H :    0.026582
  19 H :    0.036801
  20 H :    0.036934

  Mayer bond orders larger than 0.100000
B(  0-C ,  1-C ) :   0.9694 B(  0-C ,  2-H ) :   0.9507 B(  0-C ,  3-H ) :   0.9558
B(  0-C ,  4-H ) :   0.9618 B(  0-C ,  6-O ) :   0.1065 B(  1-C ,  5-O ) :   1.5803
B(  1-C ,  8-O ) :   1.7313 B(  5-O ,  6-O ) :   0.3822 B(  5-O ,  8-O ) :   0.2400
B(  6-O ,  7-H ) :   0.9185 B(  6-O ,  8-O ) :   0.3807 B(  9-C , 10-C ) :   1.8600
B(  9-C , 16-C ) :   1.0877 B(  9-C , 17-H ) :   0.9500 B( 10-C , 11-C ) :   1.0879
B( 10-C , 12-H ) :   0.9499 B( 11-C , 13-H ) :   0.9596 B( 11-C , 14-H ) :   0.9455
B( 11-C , 15-H ) :   0.9476 B( 16-C , 18-H ) :   0.9596 B( 16-C , 19-H ) :   0.9491
B( 16-C , 20-H ) :   0.9490

Dispersion correction           -0.026593192
FINAL SINGLE POINT ENERGY      -460.776242146876
Dispersion correction             ... done (  0.1 sec)

DIPOLE MOMENT
-------------

Method             : SCF
Type of density    : Electron Density
Multiplicity       :   1
Irrep              :   0
Energy             :  -460.7496489550219394 Eh
Basis              : AO
                                X                 Y                 Z
Electronic contribution:      8.776868894      -2.105387577       3.602471627
Nuclear contribution   :     -8.665588746       2.552067880      -4.498353636
                        -----------------------------------------
Total Dipole Moment    :      0.111280148       0.446680303      -0.895882009
                        -----------------------------------------
Magnitude (a.u.)       :      1.007229437
Magnitude (Debye)      :      2.560173768

Rotational constants in cm-1:             0.090802             0.020806             0.019967
Rotational constants in MHz :          2722.173976           623.756544           598.586831

                             ****ORCA TERMINATED NORMALLY****
TOTAL RUN TIME: 0 days 0 hours 0 minutes 30 seconds 12 msec
