                         Program Version 6.1.0  -  RELEASE   -
|  1> ! B3LYP def2-SVP d3 EnGrad
|  2> %pal nprocs 6 end
|  3> *xyz 0 1
|  4> C   -0.68432250105073 1.91791629735588 -0.48054172511861
|  5> H   -1.53612906758603 1.39200879526999 -0.00763334155213
|  6> H   -0.83315205610761 1.87569899655704 -1.56995655798047
|  7> H   -0.6565428967113 2.9589195501263 -0.13660638980533
|  8> C   0.59484149902475 1.23380963422406 -0.09758994569369
|  9> O   0.70898707632263 0.01842577412506 -0.72081968850994
| 10> O   1.42971320488056 1.64286476248071 0.66560441333084
| 11> C   1.86656486059245 -0.78531096223494 -0.39728962813732
| 12> H   2.01585446928416 -1.42458217904235 -1.27989464656442
| 13> H   2.73153579083829 -0.1163824461979 -0.28559024443314
| 14> C   1.63342670654854 -1.60957858984604 0.85636403010327
| 15> H   1.53094654670859 -0.95504723523695 1.73479002918539
| 16> H   2.48861812064091 -2.28281240010149 1.02769214998189
| 17> H   0.72168653835481 -2.21730885946548 0.75169516817969
| 18> O   -3.08424213083654 0.07891431952033 0.77541797877554
| 19> H   -2.80541919254909 0.00277073086586 1.6981742840524
| 20> H   -2.61283636975558 -0.66039391525464 0.33602125645008
| 21> O   -1.4604076989308 -1.73547363087178 -0.57123759539055
| 22> H   -1.80835617702838 -2.01909111355727 -1.4273671532164
| 23> H   -0.76193572263965 -1.08404750871642 -0.78198540365711
| 24> *
| 25>
| 26>                          ****END OF INPUT****

CARTESIAN COORDINATES (ANGSTROEM)
---------------------------------
  C     -0.684323    1.917916   -0.480542
  H     -1.536129    1.392009   -0.007633
  H     -0.833152    1.875699   -1.569957
  H     -0.656543    2.958920   -0.136606
  C      0.594841    1.233810   -0.097590
  O      0.708987    0.018426   -0.720820
  O      1.429713    1.642865    0.665604
  C      1.866565   -0.785311   -0.397290
  H      2.015854   -1.424582   -1.279895
  H      2.731536   -0.116382   -0.285590
  C      1.633427   -1.609579    0.856364
  H      1.530947   -0.955047    1.734790
  H      2.488618   -2.282812    1.027692
  H      0.721687   -2.217309    0.751695
  O     -3.084242    0.078914    0.775418
  H     -2.805419    0.002771    1.698174
  H     -2.612836   -0.660394    0.336021
  O     -1.460408   -1.735474   -0.571238
  H     -1.808356   -2.019091   -1.427367
  H     -0.761936   -1.084048   -0.781985

 Total Charge           Charge          ....    0
 Multiplicity           Mult            ....    1
 Number of Electrons    NEL             ....   68
 Basis Dimension        Dim             ....  172

ORBITAL ENERGIES
----------------

  NO   OCC          E(Eh)            E(eV)
   0   2.0000     -19.185609      -522.0670
   1   2.0000     -19.143084      -520.9098
   2   2.0000     -19.125090      -520.4201
   3   2.0000     -19.101922      -519.7897
   4   2.0000     -10.317181      -280.7448
   5   2.0000     -10.250449      -278.9289
   6   2.0000     -10.187634      -277.2196
   7   2.0000     -10.187062      -277.2040
   8   2.0000      -1.096836       -29.8464
   9   2.0000      -1.011721       -27.5303
  10   2.0000      -0.999793       -27.2058
  11   2.0000      -0.959108       -26.0986
  12   2.0000      -0.779801       -21.2195
  13   2.0000      -0.727603       -19.7991
  14   2.0000      -0.646033       -17.5795
  15   2.0000      -0.566505       -15.4154
  16   2.0000      -0.532739       -14.4966
  17   2.0000      -0.503506       -13.7011
  18   2.0000      -0.495024       -13.4703
  19   2.0000      -0.486377       -13.2350
  20   2.0000      -0.471613       -12.8332
  21   2.0000      -0.439805       -11.9677
  22   2.0000      -0.424663       -11.5557
  23   2.0000      -0.408485       -11.1154
  24   2.0000      -0.404207       -10.9990
  25   2.0000      -0.391297       -10.6477
  26   2.0000      -0.377035       -10.2596
  27   2.0000      -0.368379       -10.0241
  28   2.0000      -0.353062        -9.6073
  29   2.0000      -0.347725        -9.4621
  30   2.0000      -0.314204        -8.5499
  31   2.0000      -0.312553        -8.5050
  32   2.0000      -0.282449        -7.6858
  33   2.0000      -0.274905        -7.4805
  34   0.0000       0.005989         0.1630
  35   0.0000       0.035584         0.9683
  36   0.0000       0.076543         2.0828
  37   0.0000       0.080071         2.1788
  38   0.0000       0.091603         2.4926

MULLIKEN ATOMIC CHARGES
-----------------------
   0 C :    0.029190
   1 H :    0.030052
   2 H :    0.029304
   3 H :    0.034635
   4 C :    0.137299
   5 O :   -0.370684
   6 O :   -0.221349
   7 C :    0.179412
   8 H :    0.016421
   9 H :    0.032831
  10 C :   -0.034577
  11 H :    0.034053
  12 H :    0.020438
  13 H :    0.027927
  14 O :   -0.284210
  15 H :    0.149863
  16 H :    0.136095
  17 O :   -0.285668
  18 H :    0.169056
  19 H :    0.169914
Sum of atomic charges:    0.0000000

LOEWDIN ATOMIC CHARGES
----------------------
   0 C :   -0.084227
   1 H :    0.040750
   2 H :    0.039973
   3 H :    0.041543
   4 C :    0.098084
   5 O :   -0.117020
   6 O :   -0.168283
   7 C :    0.088880
   8 H :    0.020012
   9 H :    0.022834
  10 C :   -0.070798
  11 H :    0.031009
  12 H :    0.033060
  13 H :    0.026024
  14 O :   -0.146934
  15 H :    0.071915
  16 H :    0.035923
  17 O :   -0.101949
  18 H :    0.085924
  19 H :    0.053280

  Mayer bond orders larger than 0.100000
B(  0-C ,  1-H ) :   0.8853 B(  0-C ,  2-H ) :   0.9437 B(  0-C ,  3-H ) :   0.9515
B(  0-C ,  4-C ) :   1.0474 B(  1-H , 14-O ) :   0.1999 B(  4-C ,  5-O ) :   1.0587
B(  4-C ,  6-O ) :   2.0792 B(  5-O ,  7-C ) :   0.8654 B(  5-O , 19-H ) :   0.1053
B(  7-C ,  8-H ) :   0.9586 B(  7-C ,  9-H ) :   0.9433 B(  7-C , 10-C ) :   1.1256
B( 10-C , 11-H ) :   0.9640 B( 10-C , 12-H ) :   0.9590 B( 10-C , 13-H ) :   0.9585
B( 14-O , 15-H ) :   1.0012 B( 14-O , 16-H ) :   0.9289 B( 16-H , 17-O ) :   0.1659
B( 17-O , 18-H ) :   0.9888 B( 17-O , 19-H ) :   0.9239

Dispersion correction           -0.023432731
FINAL SINGLE POINT ENERGY      -460.001296077117
Dispersion correction             ... done (  0.1 sec)

DIPOLE MOMENT
-------------

Method             : SCF
Type of density    : Electron Density
Multiplicity       :   1
Irrep              :   0
Energy             :  -459.9778633465990652 Eh
Basis              : AO
                                X                 Y                 Z
Electronic contribution:      1.998149530       3.844004576      -0.704356929
Nuclear contribution   :     -1.552038974      -4.669453334      -0.034489865
                        -----------------------------------------
Total Dipole Moment    :      0.446110556      -0.825448758      -0.738846793
                        -----------------------------------------
Magnitude (a.u.)       :      1.194267501
Magnitude (Debye)      :      3.035586747

Rotational constants in cm-1:             0.059460             0.040878             0.029086
Rotational constants in MHz :          1782.569929          1225.500217           871.982227

                             ****ORCA TERMINATED NORMALLY****
TOTAL RUN TIME: 0 days 0 hours 0 minutes 25 seconds 930 msec
