                         Program Version 6.1.0  -  RELEASE   -
|  1> ! B3LYP def2-SVP d3 EnGrad
|  2> %pal nprocs 6 end
|  3> *xyz 0 1
|  4> C   -0.53185346237214 -1.39220533263128 0.62430528433052
|  5> C   -1.39982599972029 -0.79224340559391 -0.27114479918658
|  6> C   -1.45165253828193 0.60629495800523 -0.43327863030823
|  7> C   -0.63635611573883 1.45693853379487 0.29236876756233
|  8> C   1.48459669154029 -0.65856867698212 -0.11830536757891
|  9> C   1.43282620316248 0.71697028736317 -0.28495993636196
| 10> H   -1.89803330973441 -1.41498343940507 -1.02189979469273
| 11> H   -0.25980748132618 -0.88917137968624 1.55265377585326
| 12> H   -0.42700039549834 -2.48070444813152 0.64211707168284
| 13> H   1.97559814238836 -1.08277748864846 0.76095675004964
| 14> H   1.42878913215802 -1.31699726293722 -0.98643809055382
| 15> H   1.33297074780679 1.14295776761637 -1.28440794063411
| 16> H   1.88421514317553 1.37426030095163 0.46189458381101
| 17> H   -0.6120455321482 2.52523807670891 0.05940716998685
| 18> H   -0.3339252466901 1.20171634347254 1.30843155188335
| 19> H   -1.98849597872107 1.0032751661031 -1.30170039584344
| 20> *
| 21>
| 22>                          ****END OF INPUT****

CARTESIAN COORDINATES (ANGSTROEM)
---------------------------------
  C     -0.531853   -1.392205    0.624305
  C     -1.399826   -0.792243   -0.271145
  C     -1.451653    0.606295   -0.433279
  C     -0.636356    1.456939    0.292369
  C      1.484597   -0.658569   -0.118305
  C      1.432826    0.716970   -0.284960
  H     -1.898033   -1.414983   -1.021900
  H     -0.259807   -0.889171    1.552654
  H     -0.427000   -2.480704    0.642117
  H      1.975598   -1.082777    0.760957
  H      1.428789   -1.316997   -0.986438
  H      1.332971    1.142958   -1.284408
  H      1.884215    1.374260    0.461895
  H     -0.612046    2.525238    0.059407
  H     -0.333925    1.201716    1.308432
  H     -1.988496    1.003275   -1.301700

 Total Charge           Charge          ....    0
 Multiplicity           Mult            ....    1
 Number of Electrons    NEL             ....   46
 Basis Dimension        Dim             ....  134

ORBITAL ENERGIES
----------------

  NO   OCC          E(Eh)            E(eV)
   0   2.0000     -10.189054      -277.2582
   1   2.0000     -10.188964      -277.2558
   2   2.0000     -10.184348      -277.1302
   3   2.0000     -10.183945      -277.1192
   4   2.0000     -10.176598      -276.9193
   5   2.0000     -10.176291      -276.9110
   6   2.0000      -0.796394       -21.6710
   7   2.0000      -0.733986       -19.9728
   8   2.0000      -0.705148       -19.1881
   9   2.0000      -0.611710       -16.6455
  10   2.0000      -0.569385       -15.4937
  11   2.0000      -0.509261       -13.8577
  12   2.0000      -0.486040       -13.2258
  13   2.0000      -0.459406       -12.5011
  14   2.0000      -0.425094       -11.5674
  15   2.0000      -0.404667       -11.0116
  16   2.0000      -0.400822       -10.9069
  17   2.0000      -0.361699        -9.8423
  18   2.0000      -0.352968        -9.6048
  19   2.0000      -0.341371        -9.2892
  20   2.0000      -0.337982        -9.1970
  21   2.0000      -0.227898        -6.2014
  22   2.0000      -0.225827        -6.1451
  23   0.0000      -0.018146        -0.4938
  24   0.0000       0.010132         0.2757
  25   0.0000       0.062353         1.6967
  26   0.0000       0.076687         2.0868
  27   0.0000       0.098947         2.6925

MULLIKEN ATOMIC CHARGES
-----------------------
   0 C :    0.015833
   1 C :   -0.042725
   2 C :   -0.043091
   3 C :    0.015058
   4 C :   -0.044601
   5 C :   -0.043868
   6 H :   -0.013193
   7 H :    0.021940
   8 H :    0.017580
   9 H :    0.019476
  10 H :    0.025937
  11 H :    0.025559
  12 H :    0.019487
  13 H :    0.017735
  14 H :    0.021994
  15 H :   -0.013122
Sum of atomic charges:    0.0000000

LOEWDIN ATOMIC CHARGES
----------------------
   0 C :   -0.013964
   1 C :   -0.056517
   2 C :   -0.056371
   3 C :   -0.014140
   4 C :   -0.046198
   5 C :   -0.045815
   6 H :    0.023196
   7 H :    0.023914
   8 H :    0.022436
   9 H :    0.023238
  10 H :    0.023755
  11 H :    0.023634
  12 H :    0.023269
  13 H :    0.022456
  14 H :    0.023880
  15 H :    0.023227

  Mayer bond orders larger than 0.100000
B(  0-C ,  1-C ) :   1.5916 B(  0-C ,  3-C ) :   0.1355 B(  0-C ,  4-C ) :   0.4122
B(  0-C ,  7-H ) :   0.9263 B(  0-C ,  8-H ) :   0.9495 B(  1-C ,  2-C ) :   1.3669
B(  1-C ,  6-H ) :   0.9698 B(  2-C ,  3-C ) :   1.5918 B(  2-C , 15-H ) :   0.9698
B(  3-C ,  5-C ) :   0.4119 B(  3-C , 13-H ) :   0.9495 B(  3-C , 14-H ) :   0.9265
B(  4-C ,  5-C ) :   1.6607 B(  4-C ,  9-H ) :   0.9501 B(  4-C , 10-H ) :   0.9509
B(  5-C , 11-H ) :   0.9511 B(  5-C , 12-H ) :   0.9500

Dispersion correction           -0.025426082
FINAL SINGLE POINT ENERGY      -234.234124032844
Dispersion correction             ... done (  0.1 sec)

DIPOLE MOMENT
-------------

Method             : SCF
Type of density    : Electron Density
Multiplicity       :   1
Irrep              :   0
Energy             :  -234.2086979511583991 Eh
Basis              : AO
                                X                 Y                 Z
Electronic contribution:     -2.256079359      -0.129806412      -0.405102117
Nuclear contribution   :      2.419264458       0.137864095       0.419241233
                        -----------------------------------------
Total Dipole Moment    :      0.163185099       0.008057683       0.014139115
                        -----------------------------------------
Magnitude (a.u.)       :      0.163994565
Magnitude (Debye)      :      0.416841057

Rotational constants in cm-1:             0.144282             0.115561             0.075460
Rotational constants in MHz :          4325.473236          3464.431488          2262.228370

                             ****ORCA TERMINATED NORMALLY****
TOTAL RUN TIME: 0 days 0 hours 0 minutes 18 seconds 277 msec
