                         Program Version 6.1.0  -  RELEASE   -
|  1> ! B3LYP def2-SVP d3 EnGrad
|  2> %pal nprocs 6 end
|  3> *xyz 0 1
|  4> C   2.04922216019027 0.42413254871312 -0.23327420687495
|  5> C   0.65713414285233 0.72438769230102 0.26011423384925
|  6> C   -0.4020728780483 -0.0778021563806 0.04983499492184
|  7> C   -0.48405315972117 -1.37839255898261 -0.66772437572858
|  8> O   -1.92279422312061 0.77047185302366 -0.42509790384128
|  9> H   2.42418359983595 1.2051332088728 -0.92040918058164
| 10> H   2.09176448901395 -0.53074729846825 -0.77906631040595
| 11> H   2.77826430860569 0.3556944537808 0.59531407800242
| 12> H   -0.18582764642876 -1.25742526281593 -1.72069684572367
| 13> H   -1.51466873711624 -1.75308933953547 -0.64285510498806
| 14> H   0.16774586136445 -2.12575655109823 -0.18941053279965
| 15> H   -1.63096450959614 1.68863468510718 -0.52753409019682
| 16> H   0.50715358377724 1.6547927208322 0.82116129029846
| 17> H   -2.04575368084764 0.43876450895672 0.72303888894829
| 18> O   -1.48272534937821 -0.30206187935963 1.47634619184241
| 19> H   -1.00660796138284 0.16326337505323 2.18025887327794
| 20> *
| 21>
| 22>                          ****END OF INPUT****

CARTESIAN COORDINATES (ANGSTROEM)
---------------------------------
  C      2.049222    0.424133   -0.233274
  C      0.657134    0.724388    0.260114
  C     -0.402073   -0.077802    0.049835
  C     -0.484053   -1.378393   -0.667724
  O     -1.922794    0.770472   -0.425098
  H      2.424184    1.205133   -0.920409
  H      2.091764   -0.530747   -0.779066
  H      2.778264    0.355694    0.595314
  H     -0.185828   -1.257425   -1.720697
  H     -1.514669   -1.753089   -0.642855
  H      0.167746   -2.125757   -0.189411
  H     -1.630965    1.688635   -0.527534
  H      0.507154    1.654793    0.821161
  H     -2.045754    0.438765    0.723039
  O     -1.482725   -0.302062    1.476346
  H     -1.006608    0.163263    2.180259

 Total Charge           Charge          ....    0
 Multiplicity           Mult            ....    1
 Number of Electrons    NEL             ....   50
 Basis Dimension        Dim             ....  134

ORBITAL ENERGIES
----------------

  NO   OCC          E(Eh)            E(eV)
   0   2.0000     -19.130924      -520.5789
   1   2.0000     -19.129946      -520.5523
   2   2.0000     -10.270923      -279.4860
   3   2.0000     -10.186372      -277.1853
   4   2.0000     -10.178808      -276.9795
   5   2.0000     -10.151837      -276.2455
   6   2.0000      -1.011599       -27.5270
   7   2.0000      -0.941892       -25.6302
   8   2.0000      -0.782334       -21.2884
   9   2.0000      -0.712683       -19.3931
  10   2.0000      -0.641641       -17.4599
  11   2.0000      -0.569984       -15.5101
  12   2.0000      -0.502514       -13.6741
  13   2.0000      -0.452974       -12.3261
  14   2.0000      -0.446189       -12.1414
  15   2.0000      -0.423679       -11.5289
  16   2.0000      -0.417172       -11.3518
  17   2.0000      -0.391275       -10.6471
  18   2.0000      -0.388677       -10.5764
  19   2.0000      -0.364375        -9.9151
  20   2.0000      -0.356408        -9.6983
  21   2.0000      -0.344442        -9.3727
  22   2.0000      -0.338171        -9.2021
  23   2.0000      -0.287611        -7.8263
  24   2.0000      -0.186250        -5.0681
  25   0.0000       0.013116         0.3569
  26   0.0000       0.046373         1.2619
  27   0.0000       0.060092         1.6352
  28   0.0000       0.077872         2.1190
  29   0.0000       0.095393         2.5958

MULLIKEN ATOMIC CHARGES
-----------------------
   0 C :    0.080484
   1 C :   -0.143829
   2 C :   -0.055562
   3 C :    0.132964
   4 O :   -0.313517
   5 H :    0.008007
   6 H :   -0.000665
   7 H :    0.008152
   8 H :    0.031051
   9 H :    0.020840
  10 H :    0.031118
  11 H :    0.160094
  12 H :   -0.042136
  13 H :    0.233154
  14 O :   -0.310371
  15 H :    0.160216
Sum of atomic charges:    0.0000000

LOEWDIN ATOMIC CHARGES
----------------------
   0 C :   -0.046219
   1 C :   -0.211170
   2 C :    0.178625
   3 C :   -0.046586
   4 O :   -0.115075
   5 H :    0.021694
   6 H :    0.024090
   7 H :    0.021802
   8 H :    0.038500
   9 H :    0.042155
  10 H :    0.038356
  11 H :    0.064071
  12 H :    0.009780
  13 H :    0.026892
  14 O :   -0.111453
  15 H :    0.064538

  Mayer bond orders larger than 0.100000
B(  0-C ,  1-C ) :   1.0885 B(  0-C ,  5-H ) :   0.9546 B(  0-C ,  6-H ) :   0.9607
B(  0-C ,  7-H ) :   0.9545 B(  1-C ,  2-C ) :   1.7686 B(  1-C , 12-H ) :   0.9228
B(  2-C ,  3-C ) :   1.0869 B(  2-C ,  4-O ) :   0.5741 B(  2-C , 14-O ) :   0.5730
B(  3-C ,  8-H ) :   0.9483 B(  3-C ,  9-H ) :   0.9303 B(  3-C , 10-H ) :   0.9483
B(  4-O , 11-H ) :   0.9713 B(  4-O , 13-H ) :   0.5130 B( 13-H , 14-O ) :   0.5180
B( 14-O , 15-H ) :   0.9712

Dispersion correction           -0.020205400
FINAL SINGLE POINT ENERGY      -308.375218475416
Dispersion correction             ... done (  0.0 sec)

DIPOLE MOMENT
-------------

Method             : SCF
Type of density    : Electron Density
Multiplicity       :   1
Irrep              :   0
Energy             :  -308.3550130749588334 Eh
Basis              : AO
                                X                 Y                 Z
Electronic contribution:     -4.394620579       0.943429827       1.558703164
Nuclear contribution   :      4.676734181      -0.523636126      -1.382789078
                        -----------------------------------------
Total Dipole Moment    :      0.282113601       0.419793701       0.175914085
                        -----------------------------------------
Magnitude (a.u.)       :      0.535500328
Magnitude (Debye)      :      1.361133662

Rotational constants in cm-1:             0.154206             0.074700             0.070506
Rotational constants in MHz :          4622.982264          2239.457157          2113.716443

                             ****ORCA TERMINATED NORMALLY****
TOTAL RUN TIME: 0 days 0 hours 0 minutes 18 seconds 533 msec
