                         Program Version 6.1.0  -  RELEASE   -
|  1> ! B3LYP def2-SVP d3 EnGrad
|  2> %pal nprocs 6 end
|  3> *xyz 0 1
|  4> C   -3.08994133808147 0.26103293839449 0.39681303697025
|  5> C   -1.883853915411 0.1032898497298 -0.0904053156471
|  6> C   -0.67410131182931 -0.04002521449876 -0.57658002239333
|  7> C   0.52633428131741 0.77731215067505 -0.15368973069047
|  8> C   1.58550177470943 -0.02996938728316 0.61754984895551
|  9> C   2.21147844208256 -1.17455325620882 -0.1794094667239
| 10> H   1.46398144783384 -1.93446896383445 -0.45854351113639
| 11> H   -3.81078095384657 0.94410389582388 -0.06819427686654
| 12> H   -3.42348232567526 -0.28564187890134 1.28678930524728
| 13> H   2.37938407259309 0.66543323446156 0.94230439902166
| 14> H   1.12568201728176 -0.42676393745184 1.53970853105612
| 15> H   2.99526379401818 -1.68415253952267 0.4036136926358
| 16> H   2.67510925269371 -0.806584894725 -1.11077717029083
| 17> H   0.99463281652716 1.21246950225551 -1.0564708590653
| 18> H   0.18680825858307 1.62175200320043 0.46656485317858
| 19> H   -0.51260031279659 -0.81919050211469 -1.33396731425131
| 20> *
| 21>
| 22>                          ****END OF INPUT****

CARTESIAN COORDINATES (ANGSTROEM)
---------------------------------
  C     -3.089941    0.261033    0.396813
  C     -1.883854    0.103290   -0.090405
  C     -0.674101   -0.040025   -0.576580
  C      0.526334    0.777312   -0.153690
  C      1.585502   -0.029969    0.617550
  C      2.211478   -1.174553   -0.179409
  H      1.463981   -1.934469   -0.458544
  H     -3.810781    0.944104   -0.068194
  H     -3.423482   -0.285642    1.286789
  H      2.379384    0.665433    0.942304
  H      1.125682   -0.426764    1.539709
  H      2.995264   -1.684153    0.403614
  H      2.675109   -0.806585   -1.110777
  H      0.994633    1.212470   -1.056471
  H      0.186808    1.621752    0.466565
  H     -0.512600   -0.819191   -1.333967

 Total Charge           Charge          ....    0
 Multiplicity           Mult            ....    1
 Number of Electrons    NEL             ....   46
 Basis Dimension        Dim             ....  134

ORBITAL ENERGIES
----------------

  NO   OCC          E(Eh)            E(eV)
   0   2.0000     -10.194253      -277.3997
   1   2.0000     -10.190086      -277.2863
   2   2.0000     -10.188463      -277.2422
   3   2.0000     -10.188328      -277.2385
   4   2.0000     -10.182566      -277.0817
   5   2.0000     -10.176409      -276.9142
   6   2.0000      -0.801481       -21.8094
   7   2.0000      -0.759431       -20.6652
   8   2.0000      -0.706029       -19.2120
   9   2.0000      -0.649182       -17.6651
  10   2.0000      -0.575235       -15.6529
  11   2.0000      -0.505649       -13.7594
  12   2.0000      -0.465401       -12.6642
  13   2.0000      -0.455814       -12.4033
  14   2.0000      -0.433428       -11.7942
  15   2.0000      -0.418615       -11.3911
  16   2.0000      -0.404427       -11.0050
  17   2.0000      -0.388268       -10.5653
  18   2.0000      -0.346361        -9.4250
  19   2.0000      -0.335933        -9.1412
  20   2.0000      -0.332208        -9.0398
  21   2.0000      -0.260365        -7.0849
  22   2.0000      -0.249865        -6.7992
  23   0.0000       0.014826         0.4034
  24   0.0000       0.018635         0.5071
  25   0.0000       0.070906         1.9294
  26   0.0000       0.089369         2.4318
  27   0.0000       0.095821         2.6074

MULLIKEN ATOMIC CHARGES
-----------------------
   0 C :   -0.212121
   1 C :    0.185651
   2 C :   -0.218552
   3 C :    0.084660
   4 C :   -0.007058
   5 C :   -0.006879
   6 H :    0.012258
   7 H :    0.050009
   8 H :    0.049787
   9 H :    0.000986
  10 H :    0.004582
  11 H :    0.011942
  12 H :    0.006126
  13 H :    0.003954
  14 H :    0.001489
  15 H :    0.033166
Sum of atomic charges:    0.0000000

LOEWDIN ATOMIC CHARGES
----------------------
   0 C :   -0.105183
   1 C :    0.017796
   2 C :   -0.075856
   3 C :   -0.021236
   4 C :   -0.033639
   5 C :   -0.059586
   6 H :    0.020471
   7 H :    0.039424
   8 H :    0.039309
   9 H :    0.020747
  10 H :    0.021211
  11 H :    0.024531
  12 H :    0.020109
  13 H :    0.025617
  14 H :    0.027977
  15 H :    0.038308

  Mayer bond orders larger than 0.100000
B(  0-C ,  1-C ) :   1.9598 B(  0-C ,  7-H ) :   0.9326 B(  0-C ,  8-H ) :   0.9327
B(  1-C ,  2-C ) :   1.8144 B(  2-C ,  3-C ) :   1.0323 B(  2-C , 15-H ) :   0.9320
B(  3-C ,  4-C ) :   1.0839 B(  3-C , 13-H ) :   0.9280 B(  3-C , 14-H ) :   0.9402
B(  4-C ,  5-C ) :   1.1100 B(  4-C ,  9-H ) :   0.9423 B(  4-C , 10-H ) :   0.9422
B(  5-C ,  6-H ) :   0.9672 B(  5-C , 11-H ) :   0.9652 B(  5-C , 12-H ) :   0.9699

Dispersion correction           -0.019976427
FINAL SINGLE POINT ENERGY      -234.285705834470
Dispersion correction             ... done (  0.1 sec)

DIPOLE MOMENT
-------------

Method             : SCF
Type of density    : Electron Density
Multiplicity       :   1
Irrep              :   0
Energy             :  -234.2657294075073366 Eh
Basis              : AO
                                X                 Y                 Z
Electronic contribution:     -4.996601595       1.117522618      -0.465733767
Nuclear contribution   :      5.170126807      -1.104145953       0.483322527
                        -----------------------------------------
Total Dipole Moment    :      0.173525212       0.013376666       0.017588760
                        -----------------------------------------
Magnitude (a.u.)       :      0.174926553
Magnitude (Debye)      :      0.444627962

Rotational constants in cm-1:             0.332452             0.050282             0.048762
Rotational constants in MHz :          9966.654534          1507.429814          1461.846990

                             ****ORCA TERMINATED NORMALLY****
TOTAL RUN TIME: 0 days 0 hours 0 minutes 17 seconds 838 msec
