                         Program Version 6.1.0  -  RELEASE   -
|  1> ! B3LYP def2-SVP d3 EnGrad
|  2> %pal nprocs 6 end
|  3> *xyz 0 1
|  4> H   2.44547278037476 1.05874753005753 0.23743632237164
|  5> C   1.41864855662789 1.16671579357755 -0.11685546018525
|  6> C   0.55134040849011 0.14930300826759 -0.03613731702604
|  7> H   1.11272126040823 2.11330014517497 -0.56468932447245
|  8> H   -1.84351711580567 -0.06206334360682 1.10828417842493
|  9> O   0.88017152013491 -1.0533186534954 0.49786745660802
| 10> H   0.04078171428726 -1.53022418290437 0.62482074917886
| 11> O   -1.73447564729564 -0.55394749844748 0.28176936859697
| 12> C   -0.86590115176032 0.19301740694878 -0.56348466220141
| 13> H   -1.20134695016143 1.23445090979403 -0.70631789568444
| 14> H   -0.91018037530007 -0.31223511536637 -1.54373541561085
| 15> *
| 16>
| 17>                          ****END OF INPUT****

CARTESIAN COORDINATES (ANGSTROEM)
---------------------------------
  H      2.445473    1.058748    0.237436
  C      1.418649    1.166716   -0.116855
  C      0.551340    0.149303   -0.036137
  H      1.112721    2.113300   -0.564689
  H     -1.843517   -0.062063    1.108284
  O      0.880172   -1.053319    0.497867
  H      0.040782   -1.530224    0.624821
  O     -1.734476   -0.553947    0.281769
  C     -0.865901    0.193017   -0.563485
  H     -1.201347    1.234451   -0.706318
  H     -0.910180   -0.312235   -1.543735

 Total Charge           Charge          ....    0
 Multiplicity           Mult            ....    1
 Number of Electrons    NEL             ....   40
 Basis Dimension        Dim             ....  100

ORBITAL ENERGIES
----------------

  NO   OCC          E(Eh)            E(eV)
   0   2.0000     -19.155630      -521.2512
   1   2.0000     -19.148802      -521.0654
   2   2.0000     -10.247475      -278.8480
   3   2.0000     -10.236637      -278.5531
   4   2.0000     -10.163512      -276.5632
   5   2.0000      -1.051066       -28.6010
   6   2.0000      -1.016742       -27.6670
   7   2.0000      -0.759136       -20.6572
   8   2.0000      -0.681326       -18.5398
   9   2.0000      -0.568331       -15.4651
  10   2.0000      -0.540468       -14.7069
  11   2.0000      -0.504891       -13.7388
  12   2.0000      -0.458567       -12.4782
  13   2.0000      -0.441041       -12.0013
  14   2.0000      -0.399295       -10.8654
  15   2.0000      -0.380431       -10.3521
  16   2.0000      -0.357503        -9.7281
  17   2.0000      -0.342827        -9.3288
  18   2.0000      -0.300195        -8.1687
  19   2.0000      -0.224804        -6.1172
  20   0.0000       0.019526         0.5313
  21   0.0000       0.045950         1.2504
  22   0.0000       0.084140         2.2896
  23   0.0000       0.105134         2.8608
  24   0.0000       0.117298         3.1918

MULLIKEN ATOMIC CHARGES
-----------------------
   0 H :    0.016553
   1 C :   -0.080437
   2 C :   -0.042399
   3 H :    0.001815
   4 H :    0.171236
   5 O :   -0.203749
   6 H :    0.162883
   7 O :   -0.330955
   8 C :    0.267586
   9 H :    0.007354
  10 H :    0.030113
Sum of atomic charges:   -0.0000000

LOEWDIN ATOMIC CHARGES
----------------------
   0 H :    0.026912
   1 C :   -0.137174
   2 C :    0.009440
   3 H :    0.022503
   4 H :    0.083590
   5 O :   -0.060993
   6 H :    0.072599
   7 O :   -0.133517
   8 C :    0.066338
   9 H :    0.017968
  10 H :    0.032334

  Mayer bond orders larger than 0.100000
B(  0-H ,  1-C ) :   0.9369 B(  1-C ,  2-C ) :   1.9039 B(  1-C ,  3-H ) :   0.9400
B(  2-C ,  5-O ) :   1.1929 B(  2-C ,  8-C ) :   1.0077 B(  4-H ,  7-O ) :   0.9778
B(  5-O ,  6-H ) :   0.9384 B(  7-O ,  8-C ) :   0.9788 B(  8-C ,  9-H ) :   0.9447
B(  8-C , 10-H ) :   0.9239

Dispersion correction           -0.012110064
FINAL SINGLE POINT ENERGY      -268.010292173281
Dispersion correction             ... done (  0.0 sec)

DIPOLE MOMENT
-------------

Method             : SCF
Type of density    : Electron Density
Multiplicity       :   1
Irrep              :   0
Energy             :  -267.9981821094127099 Eh
Basis              : AO
                                X                 Y                 Z
Electronic contribution:     -0.361998435      -2.347437724       1.117080668
Nuclear contribution   :     -0.288198333       2.710622769      -1.010925771
                        -----------------------------------------
Total Dipole Moment    :     -0.650196768       0.363185045       0.106154898
                        -----------------------------------------
Magnitude (a.u.)       :      0.752281913
Magnitude (Debye)      :      1.912148662

Rotational constants in cm-1:             0.305335             0.135297             0.100984
Rotational constants in MHz :          9153.707032          4056.091640          3027.416530

                             ****ORCA TERMINATED NORMALLY****
TOTAL RUN TIME: 0 days 0 hours 0 minutes 11 seconds 770 msec
