                         Program Version 6.1.0  -  RELEASE   -
|  1> ! B3LYP def2-SVP d3 EnGrad
|  2> %pal nprocs 6 end
|  3> *xyz 0 1
|  4> C   2.87672581103468 -0.63246000588192 0.95682677401975
|  5> C   1.69538794147062 -0.16205433240052 0.15577916375915
|  6> H   3.42471930839414 0.20537295932294 1.40569670852848
|  7> H   3.54270888892816 -1.2087157960821 0.29715594863378
|  8> H   2.51783310292336 -1.3116865543608 1.74516711203896
|  9> O   1.5688349406989 1.17753139983417 0.22520867947961
| 10> O   0.45628760805927 1.65755610519038 -0.53021733668141
| 11> H   0.00426460851535 0.81863318330341 -0.80079178113533
| 12> O   0.92660979120429 -0.85031774363815 -0.47392669364051
| 13> C   -2.47624654606499 0.85813100512496 -0.71776013567776
| 14> C   -2.30648214025867 -0.37435887497458 -1.22460152972414
| 15> C   -2.22766504093429 -1.67144963358331 -0.47587970760742
| 16> H   -2.20910497124719 -0.4596086077049 -2.31438635656791
| 17> H   -2.40893973528184 -1.55338178615702 0.60230918984155
| 18> H   -1.22875518413529 -2.12109280634693 -0.60021536451611
| 19> H   -2.96406001402141 -2.39416388554881 -0.86808653903893
| 20> C   -2.61597979122389 1.2446969945432 0.72548557002201
| 21> H   -2.50638191308567 1.69422042706136 -1.42810309760528
| 22> H   -2.63736403232328 0.37738676451959 1.40099259949862
| 23> H   -3.53896749350023 1.82749634530392 0.88982210223526
| 24> H   -1.77245513915187 1.88973784247512 1.02549669413762
| 25> *
| 26>
| 27>                          ****END OF INPUT****

CARTESIAN COORDINATES (ANGSTROEM)
---------------------------------
  C      2.876726   -0.632460    0.956827
  C      1.695388   -0.162054    0.155779
  H      3.424719    0.205373    1.405697
  H      3.542709   -1.208716    0.297156
  H      2.517833   -1.311687    1.745167
  O      1.568835    1.177531    0.225209
  O      0.456288    1.657556   -0.530217
  H      0.004265    0.818633   -0.800792
  O      0.926610   -0.850318   -0.473927
  C     -2.476247    0.858131   -0.717760
  C     -2.306482   -0.374359   -1.224602
  C     -2.227665   -1.671450   -0.475880
  H     -2.209105   -0.459609   -2.314386
  H     -2.408940   -1.553382    0.602309
  H     -1.228755   -2.121093   -0.600215
  H     -2.964060   -2.394164   -0.868087
  C     -2.615980    1.244697    0.725486
  H     -2.506382    1.694220   -1.428103
  H     -2.637364    0.377387    1.400993
  H     -3.538967    1.827496    0.889822
  H     -1.772455    1.889738    1.025497

 Total Charge           Charge          ....    0
 Multiplicity           Mult            ....    1
 Number of Electrons    NEL             ....   72
 Basis Dimension        Dim             ....  186

ORBITAL ENERGIES
----------------

  NO   OCC          E(Eh)            E(eV)
   0   2.0000     -19.233181      -523.3615
   1   2.0000     -19.192922      -522.2659
   2   2.0000     -19.142753      -520.9008
   3   2.0000     -10.331094      -281.1234
   4   2.0000     -10.216890      -278.0157
   5   2.0000     -10.179627      -277.0017
   6   2.0000     -10.178671      -276.9757
   7   2.0000     -10.175791      -276.8974
   8   2.0000     -10.172954      -276.8202
   9   2.0000      -1.164106       -31.6769
  10   2.0000      -1.045442       -28.4479
  11   2.0000      -0.925054       -25.1720
  12   2.0000      -0.782501       -21.2929
  13   2.0000      -0.753753       -20.5107
  14   2.0000      -0.706960       -19.2374
  15   2.0000      -0.640437       -17.4272
  16   2.0000      -0.623399       -16.9636
  17   2.0000      -0.519419       -14.1341
  18   2.0000      -0.512850       -13.9554
  19   2.0000      -0.498777       -13.5724
  20   2.0000      -0.497337       -13.5332
  21   2.0000      -0.470312       -12.7978
  22   2.0000      -0.434091       -11.8122
  23   2.0000      -0.427920       -11.6443
  24   2.0000      -0.414250       -11.2723
  25   2.0000      -0.409107       -11.1324
  26   2.0000      -0.406167       -11.0524
  27   2.0000      -0.393032       -10.6950
  28   2.0000      -0.389204       -10.5908
  29   2.0000      -0.374997       -10.2042
  30   2.0000      -0.364175        -9.9097
  31   2.0000      -0.355468        -9.6728
  32   2.0000      -0.327050        -8.8995
  33   2.0000      -0.306558        -8.3419
  34   2.0000      -0.279399        -7.6028
  35   2.0000      -0.240221        -6.5367
  36   0.0000      -0.007885        -0.2146
  37   0.0000       0.012320         0.3352
  38   0.0000       0.030050         0.8177
  39   0.0000       0.059034         1.6064
  40   0.0000       0.076482         2.0812

MULLIKEN ATOMIC CHARGES
-----------------------
   0 C :    0.034361
   1 C :    0.140008
   2 H :    0.046333
   3 H :    0.058701
   4 H :    0.059003
   5 O :   -0.147220
   6 O :   -0.138743
   7 H :    0.202650
   8 O :   -0.246161
   9 C :   -0.134180
  10 C :   -0.105758
  11 C :    0.069493
  12 H :   -0.004104
  13 H :   -0.001671
  14 H :    0.037609
  15 H :    0.013015
  16 C :    0.073439
  17 H :   -0.000317
  18 H :    0.001910
  19 H :    0.016809
  20 H :    0.024823
Sum of atomic charges:   -0.0000000

LOEWDIN ATOMIC CHARGES
----------------------
   0 C :   -0.065273
   1 C :    0.070603
   2 H :    0.043295
   3 H :    0.055225
   4 H :    0.055296
   5 O :   -0.005266
   6 O :   -0.031562
   7 H :    0.058187
   8 O :   -0.176866
   9 C :   -0.054695
  10 C :   -0.046534
  11 C :   -0.060868
  12 H :    0.023170
  13 H :    0.022094
  14 H :    0.035211
  15 H :    0.029852
  16 C :   -0.061093
  17 H :    0.023639
  18 H :    0.022721
  19 H :    0.031384
  20 H :    0.031480

  Mayer bond orders larger than 0.100000
B(  0-C ,  1-C ) :   1.0456 B(  0-C ,  2-H ) :   0.9536 B(  0-C ,  3-H ) :   0.9477
B(  0-C ,  4-H ) :   0.9478 B(  1-C ,  5-O ) :   1.1554 B(  1-C ,  8-O ) :   1.9857
B(  5-O ,  6-O ) :   0.9262 B(  6-O ,  7-H ) :   0.8922 B(  9-C , 10-C ) :   1.9264
B(  9-C , 16-C ) :   1.0852 B(  9-C , 17-H ) :   0.9521 B( 10-C , 11-C ) :   1.0889
B( 10-C , 12-H ) :   0.9519 B( 11-C , 13-H ) :   0.9592 B( 11-C , 14-H ) :   0.9424
B( 11-C , 15-H ) :   0.9492 B( 16-C , 18-H ) :   0.9596 B( 16-C , 19-H ) :   0.9505
B( 16-C , 20-H ) :   0.9444

Dispersion correction           -0.026595672
FINAL SINGLE POINT ENERGY      -460.860862138604
Dispersion correction             ... done (  0.0 sec)

DIPOLE MOMENT
-------------

Method             : SCF
Type of density    : Electron Density
Multiplicity       :   1
Irrep              :   0
Energy             :  -460.8342664663162509 Eh
Basis              : AO
                                X                 Y                 Z
Electronic contribution:      7.677637366       3.342964470      -2.303563702
Nuclear contribution   :     -7.132635034      -3.833616398       2.804669998
                        -----------------------------------------
Total Dipole Moment    :      0.545002332      -0.490651927       0.501106296
                        -----------------------------------------
Magnitude (a.u.)       :      0.888186003
Magnitude (Debye)      :      2.257589406

Rotational constants in cm-1:             0.075319             0.027423             0.023018
Rotational constants in MHz :          2258.020182           822.121929           690.050653

                             ****ORCA TERMINATED NORMALLY****
TOTAL RUN TIME: 0 days 0 hours 0 minutes 29 seconds 774 msec
