                         Program Version 6.1.0  -  RELEASE   -
|  1> ! B3LYP def2-SVP d3 EnGrad
|  2> %pal nprocs 6 end
|  3> *xyz 0 1
|  4> C   -2.33121601384444 3.3134461685214 0.201176580084
|  5> C   -0.91454997788663 2.8635824415997 -0.04211613257343
|  6> O   0.0621620615549 3.55554960413794 0.0916637456494
|  7> H   -2.92731201705146 3.17987287748633 -0.7184103041957
|  8> H   -2.79574441184663 2.67518976041077 0.97305317181896
|  9> H   -0.81552764445403 1.792539334809 -0.37114119171044
| 10> H   -2.3533109964717 4.36601982303485 0.5166741309272
| 11> *
| 12>
| 13>                          ****END OF INPUT****

CARTESIAN COORDINATES (ANGSTROEM)
---------------------------------
  C     -2.331216    3.313446    0.201177
  C     -0.914550    2.863582   -0.042116
  O      0.062162    3.555550    0.091664
  H     -2.927312    3.179873   -0.718410
  H     -2.795744    2.675190    0.973053
  H     -0.815528    1.792539   -0.371141
  H     -2.353311    4.366020    0.516674

 Total Charge           Charge          ....    0
 Multiplicity           Mult            ....    1
 Number of Electrons    NEL             ....   24
 Basis Dimension        Dim             ....   62

ORBITAL ENERGIES
----------------

  NO   OCC          E(Eh)            E(eV)
   0   2.0000     -19.132631      -520.6254
   1   2.0000     -10.277462      -279.6639
   2   2.0000     -10.199101      -277.5317
   3   2.0000      -1.036692       -28.2098
   4   2.0000      -0.744833       -20.2679
   5   2.0000      -0.570659       -15.5284
   6   2.0000      -0.476509       -12.9665
   7   2.0000      -0.444469       -12.0946
   8   2.0000      -0.434907       -11.8344
   9   2.0000      -0.397059       -10.8045
  10   2.0000      -0.366676        -9.9778
  11   2.0000      -0.256270        -6.9735
  12   0.0000      -0.023136        -0.6296
  13   0.0000       0.066489         1.8093
  14   0.0000       0.095630         2.6022
  15   0.0000       0.120359         3.2751
  16   0.0000       0.128435         3.4949

MULLIKEN ATOMIC CHARGES
-----------------------
   0 C :    0.002036
   1 C :    0.087956
   2 O :   -0.196496
   3 H :    0.039381
   4 H :    0.039504
   5 H :   -0.009447
   6 H :    0.037066
Sum of atomic charges:   -0.0000000

LOEWDIN ATOMIC CHARGES
----------------------
   0 C :   -0.091507
   1 C :    0.108241
   2 O :   -0.132132
   3 H :    0.045040
   4 H :    0.045165
   5 H :   -0.011539
   6 H :    0.036732

  Mayer bond orders larger than 0.100000
B(  0-C ,  1-C ) :   1.0091 B(  0-C ,  3-H ) :   0.9473 B(  0-C ,  4-H ) :   0.9473
B(  0-C ,  6-H ) :   0.9604 B(  1-C ,  2-O ) :   2.1626 B(  1-C ,  5-H ) :   0.9239

Dispersion correction           -0.005373673
FINAL SINGLE POINT ENERGY      -153.633639157284
Dispersion correction             ... done (  0.0 sec)

DIPOLE MOMENT
-------------

Method             : SCF
Type of density    : Electron Density
Multiplicity       :   1
Irrep              :   0
Energy             :  -153.6282654846985167 Eh
Basis              : AO
                                X                 Y                 Z
Electronic contribution:      3.404513903       0.487646616      -0.113718761
Nuclear contribution   :     -4.325704772      -0.922161547       0.053485934
                        -----------------------------------------
Total Dipole Moment    :     -0.921190869      -0.434514931      -0.060232828
                        -----------------------------------------
Magnitude (a.u.)       :      1.020305756
Magnitude (Debye)      :      2.593411131

Rotational constants in cm-1:             1.895265             0.336738             0.302119
Rotational constants in MHz :         56818.605087         10095.160068          9057.298054

                             ****ORCA TERMINATED NORMALLY****
TOTAL RUN TIME: 0 days 0 hours 0 minutes 6 seconds 251 msec
