                         Program Version 6.1.0  -  RELEASE   -
|  1> ! B3LYP def2-SVP d3 EnGrad
|  2> %pal nprocs 6 end
|  3> *xyz 0 1
|  4> C   2.18925602076157 -0.44727787280226 0.0737159492464
|  5> C   1.69761926350966 0.96186547965876 -0.15188145201285
|  6> C   0.78177739110238 -0.20884670997462 -0.40655947964318
|  7> C   -0.40096932885937 -0.46393885638094 0.51223793603377
|  8> C   -1.59849371869457 0.37541966102992 0.1632509009515
|  9> C   -2.802149429344 -0.09548366788658 -0.17355258813773
| 10> H   2.08697404837501 1.51948764468688 -1.00837005839516
| 11> H   2.32376142076262 -0.78407748798537 1.10670818391478
| 12> H   2.91637747115921 -0.86323220524075 -0.62946112977534
| 13> H   1.49797089362756 1.58014785951882 0.72950559705558
| 14> H   -1.43446049642862 1.46124140233109 0.17752503081161
| 15> H   -3.63073893842843 0.57258632634538 -0.4254006589763
| 16> H   -3.00479901430184 -1.17195545574006 -0.20712696522347
| 17> H   -0.67353736854489 -1.53343950710693 0.49083864739949
| 18> H   -0.08846518646412 -0.23921674822154 1.54980540753931
| 19> H   0.58285597176783 -0.44092386223175 -1.45915932078844
| 20> *
| 21>
| 22>                          ****END OF INPUT****

CARTESIAN COORDINATES (ANGSTROEM)
---------------------------------
  C      2.189256   -0.447278    0.073716
  C      1.697619    0.961865   -0.151881
  C      0.781777   -0.208847   -0.406559
  C     -0.400969   -0.463939    0.512238
  C     -1.598494    0.375420    0.163251
  C     -2.802149   -0.095484   -0.173553
  H      2.086974    1.519488   -1.008370
  H      2.323761   -0.784077    1.106708
  H      2.916377   -0.863232   -0.629461
  H      1.497971    1.580148    0.729506
  H     -1.434460    1.461241    0.177525
  H     -3.630739    0.572586   -0.425401
  H     -3.004799   -1.171955   -0.207127
  H     -0.673537   -1.533440    0.490839
  H     -0.088465   -0.239217    1.549805
  H      0.582856   -0.440924   -1.459159

 Total Charge           Charge          ....    0
 Multiplicity           Mult            ....    1
 Number of Electrons    NEL             ....   46
 Basis Dimension        Dim             ....  134

ORBITAL ENERGIES
----------------

  NO   OCC          E(Eh)            E(eV)
   0   2.0000     -10.189731      -277.2767
   1   2.0000     -10.186208      -277.1808
   2   2.0000     -10.184523      -277.1350
   3   2.0000     -10.184395      -277.1315
   4   2.0000     -10.184190      -277.1259
   5   2.0000     -10.176042      -276.9042
   6   2.0000      -0.851733       -23.1768
   7   2.0000      -0.772441       -21.0192
   8   2.0000      -0.683288       -18.5932
   9   2.0000      -0.589286       -16.0353
  10   2.0000      -0.566871       -15.4253
  11   2.0000      -0.539595       -14.6831
  12   2.0000      -0.493911       -13.4400
  13   2.0000      -0.461631       -12.5616
  14   2.0000      -0.443211       -12.0604
  15   2.0000      -0.423656       -11.5283
  16   2.0000      -0.374342       -10.1864
  17   2.0000      -0.360180        -9.8010
  18   2.0000      -0.355815        -9.6822
  19   2.0000      -0.347000        -9.4424
  20   2.0000      -0.291225        -7.9246
  21   2.0000      -0.283781        -7.7221
  22   2.0000      -0.254475        -6.9246
  23   0.0000       0.016082         0.4376
  24   0.0000       0.068469         1.8631
  25   0.0000       0.074819         2.0359
  26   0.0000       0.090222         2.4551
  27   0.0000       0.095887         2.6092

MULLIKEN ATOMIC CHARGES
-----------------------
   0 C :   -0.014103
   1 C :   -0.027185
   2 C :   -0.140117
   3 C :    0.174368
   4 C :   -0.072217
   5 C :   -0.033538
   6 H :    0.024898
   7 H :    0.019956
   8 H :    0.024463
   9 H :    0.021544
  10 H :   -0.003098
  11 H :    0.017568
  12 H :    0.009923
  13 H :   -0.005015
  14 H :   -0.010675
  15 H :    0.013228
Sum of atomic charges:   -0.0000000

LOEWDIN ATOMIC CHARGES
----------------------
   0 C :   -0.041490
   1 C :   -0.043883
   2 C :   -0.036299
   3 C :   -0.023129
   4 C :   -0.022237
   5 C :   -0.067272
   6 H :    0.024287
   7 H :    0.022169
   8 H :    0.024331
   9 H :    0.021377
  10 H :    0.022643
  11 H :    0.022356
  12 H :    0.019090
  13 H :    0.026030
  14 H :    0.028214
  15 H :    0.023813

  Mayer bond orders larger than 0.100000
B(  0-C ,  1-C ) :   1.0394 B(  0-C ,  2-C ) :   0.9822 B(  0-C ,  7-H ) :   0.9513
B(  0-C ,  8-H ) :   0.9521 B(  1-C ,  2-C ) :   0.9877 B(  1-C ,  6-H ) :   0.9539
B(  1-C ,  9-H ) :   0.9550 B(  2-C ,  3-C ) :   1.0554 B(  2-C , 15-H ) :   0.9511
B(  3-C ,  4-C ) :   1.0463 B(  3-C , 13-H ) :   0.9308 B(  3-C , 14-H ) :   0.9080
B(  4-C ,  5-C ) :   2.0162 B(  4-C , 10-H ) :   0.9593 B(  5-C , 11-H ) :   0.9498
B(  5-C , 12-H ) :   0.9525

Dispersion correction           -0.020404584
FINAL SINGLE POINT ENERGY      -234.288987467088
Dispersion correction             ... done (  0.0 sec)

DIPOLE MOMENT
-------------

Method             : SCF
Type of density    : Electron Density
Multiplicity       :   1
Irrep              :   0
Energy             :  -234.2685828828626029 Eh
Basis              : AO
                                X                 Y                 Z
Electronic contribution:     -0.532809047       0.078763128      -0.240044257
Nuclear contribution   :      0.656417498      -0.084180974       0.243771649
                        -----------------------------------------
Total Dipole Moment    :      0.123608451      -0.005417846       0.003727392
                        -----------------------------------------
Magnitude (a.u.)       :      0.123783261
Magnitude (Debye)      :      0.314632044

Rotational constants in cm-1:             0.371970             0.058930             0.055375
Rotational constants in MHz :         11151.391661          1766.676936          1660.096123

                             ****ORCA TERMINATED NORMALLY****
TOTAL RUN TIME: 0 days 0 hours 0 minutes 18 seconds 292 msec
