                         Program Version 6.1.0  -  RELEASE   -
|  1> ! B3LYP def2-SVP d3 EnGrad
|  2> %pal nprocs 6 end
|  3> *xyz 0 1
|  4> N   0.70794200150898 -1.41092370045052 0.68060735098036
|  5> B   1.42391736887395 1.10604007044148 -0.76693789003743
|  6> B   -1.37114691444434 -0.2375902543542 -0.36359666372848
|  7> N   -1.6814221411689 0.90509557605283 0.37899410030542
|  8> H   0.27147847568265 -1.74504904866635 1.54066955400436
|  9> H   1.6664746738237 -1.14530455031084 0.90935370378293
| 10> H   0.76008734110328 -2.2087476840926 0.0452028130508
| 11> H   1.6700611801501 1.28635446588266 0.39838762080102
| 12> H   2.02396762216842 0.26869961504645 -1.3917375674852
| 13> H   0.70442243759885 1.87951677087698 -1.34625686157981
| 14> H   -0.72338979912165 -0.11795102789321 -1.37783969064744
| 15> H   -1.9117879543675 -1.2861134923447 -0.09561998249132
| 16> H   -2.25427093495493 0.89058825042986 1.21412676242746
| 17> H   -1.28633335685262 1.81538500938214 0.17464675061733
| 18> *
| 19>
| 20>                          ****END OF INPUT****

CARTESIAN COORDINATES (ANGSTROEM)
---------------------------------
  N      0.707942   -1.410924    0.680607
  B      1.423917    1.106040   -0.766938
  B     -1.371147   -0.237590   -0.363597
  N     -1.681422    0.905096    0.378994
  H      0.271478   -1.745049    1.540670
  H      1.666475   -1.145305    0.909354
  H      0.760087   -2.208748    0.045203
  H      1.670061    1.286354    0.398388
  H      2.023968    0.268700   -1.391738
  H      0.704422    1.879517   -1.346257
  H     -0.723390   -0.117951   -1.377840
  H     -1.911788   -1.286113   -0.095620
  H     -2.254271    0.890588    1.214127
  H     -1.286333    1.815385    0.174647

 Total Charge           Charge          ....    0
 Multiplicity           Mult            ....    1
 Number of Electrons    NEL             ....   34
 Basis Dimension        Dim             ....  106

ORBITAL ENERGIES
----------------

  NO   OCC          E(Eh)            E(eV)
   0   2.0000     -14.321151      -389.6983
   1   2.0000     -14.304843      -389.2546
   2   2.0000      -6.763649      -184.0483
   3   2.0000      -6.727870      -183.0746
   4   2.0000      -0.849615       -23.1192
   5   2.0000      -0.832488       -22.6531
   6   2.0000      -0.504041       -13.7156
   7   2.0000      -0.496242       -13.5034
   8   2.0000      -0.482166       -13.1204
   9   2.0000      -0.468545       -12.7498
  10   2.0000      -0.464893       -12.6504
  11   2.0000      -0.370909       -10.0930
  12   2.0000      -0.333868        -9.0850
  13   2.0000      -0.331526        -9.0213
  14   2.0000      -0.298430        -8.1207
  15   2.0000      -0.291525        -7.9328
  16   2.0000      -0.253508        -6.8983
  17   0.0000      -0.039339        -1.0705
  18   0.0000       0.043392         1.1808
  19   0.0000       0.064715         1.7610
  20   0.0000       0.080334         2.1860
  21   0.0000       0.113988         3.1018

MULLIKEN ATOMIC CHARGES
-----------------------
   0 N :   -0.176009
   1 B :    0.031864
   2 B :   -0.032224
   3 N :   -0.075586
   4 H :    0.098035
   5 H :    0.102997
   6 H :    0.107167
   7 H :   -0.045485
   8 H :   -0.040908
   9 H :   -0.034755
  10 H :   -0.061379
  11 H :   -0.092655
  12 H :    0.106337
  13 H :    0.112602
Sum of atomic charges:    0.0000000

LOEWDIN ATOMIC CHARGES
----------------------
   0 N :   -0.044802
   1 B :    0.020315
   2 B :   -0.158249
   3 N :    0.036714
   4 H :    0.065468
   5 H :    0.066818
   6 H :    0.069327
   7 H :   -0.039695
   8 H :   -0.037282
   9 H :   -0.036022
  10 H :   -0.035106
  11 H :   -0.058039
  12 H :    0.073949
  13 H :    0.076602

  Mayer bond orders larger than 0.100000
B(  0-N ,  2-B ) :   0.1817 B(  0-N ,  4-H ) :   0.9789 B(  0-N ,  5-H ) :   0.9749
B(  0-N ,  6-H ) :   0.9818 B(  1-B ,  7-H ) :   0.9845 B(  1-B ,  8-H ) :   0.9887
B(  1-B ,  9-H ) :   0.9814 B(  2-B ,  3-N ) :   1.5405 B(  2-B , 10-H ) :   0.9207
B(  2-B , 11-H ) :   0.9428 B(  3-N , 12-H ) :   0.9609 B(  3-N , 13-H ) :   0.9563

Dispersion correction           -0.013532969
FINAL SINGLE POINT ENERGY      -164.981005085188
Dispersion correction             ... done (  0.0 sec)

DIPOLE MOMENT
-------------

Method             : SCF
Type of density    : Electron Density
Multiplicity       :   1
Irrep              :   0
Energy             :  -164.9674721158254158 Eh
Basis              : AO
                                X                 Y                 Z
Electronic contribution:     -2.134530124       0.999085826       0.366791957
Nuclear contribution   :      2.420326728      -1.255198382       0.571736292
                        -----------------------------------------
Total Dipole Moment    :      0.285796605      -0.256112556       0.938528249
                        -----------------------------------------
Magnitude (a.u.)       :      1.013956909
Magnitude (Debye)      :      2.577273644

Rotational constants in cm-1:             0.179627             0.129412             0.087296
Rotational constants in MHz :          5385.076012          3879.680904          2617.059680

                             ****ORCA TERMINATED NORMALLY****
TOTAL RUN TIME: 0 days 0 hours 0 minutes 11 seconds 584 msec
