                         Program Version 6.1.0  -  RELEASE   -
|  1> ! B3LYP def2-SVP d3 EnGrad
|  2> %pal nprocs 6 end
|  3> *xyz 0 2
|  4> C   -1.76103410210992 0.9274059950273 -1.16508612220028
|  5> C   -0.95040563339193 0.74912965487219 0.09317160688004
|  6> C   -1.65418481883881 -0.27091623352159 1.06363842354291
|  7> C   -1.84277972476461 -1.63164401132094 0.31163664625936
|  8> C   -2.57929409606475 -1.4536002366392 -1.03257234730772
|  9> C   -2.01669320926886 -0.33186742037452 -1.93423814018509
| 10> H   -2.58216316186502 -2.41249276322629 -1.57943044720318
| 11> H   -3.63622289431147 -1.22169678916881 -0.82421113087901
| 12> H   -1.07314995746673 -0.68079091115179 -2.39500199778031
| 13> H   -2.71316532357836 -0.15053815253634 -2.76921375301634
| 14> C   -2.48605568860642 2.19228703862449 -1.49422954787749
| 15> H   -1.82259019147112 3.07579846668189 -1.52007546057139
| 16> H   -2.97874497685558 2.1228629987388 -2.47669950443356
| 17> H   -3.27588191160126 2.43693253411878 -0.75273340857917
| 18> C   -0.57660724418211 -2.53340790880611 0.19424425093392
| 19> C   -0.5041850072441 2.07041233268413 0.73778946327343
| 20> C   0.5760399602865 -2.06023177818523 -0.64816183689756
| 21> H   -0.22973855075016 -2.78578893470455 1.20532787631951
| 22> C   0.69648875332422 2.7004184995899 -0.00610514194855
| 23> C   1.94246471629115 1.84434728958135 0.08352573311906
| 24> H   0.8962470023899 3.69913947329315 0.42181083697093
| 25> C   -0.81121456121455 -0.49461426544423 2.33018806264872
| 26> H   -0.87751156382126 0.36374465044189 3.0149964345842
| 27> H   -1.17222673724137 -1.37620102664662 2.88561895560002
| 28> C   -3.03023679346856 0.26472719614184 1.49953612397459
| 29> H   -2.92350001657524 1.22609460802291 2.02657423304285
| 30> H   -3.70452270568342 0.42924177246471 0.64711272138531
| 31> H   -3.52456822133318 -0.43884503114873 2.18994848264067
| 32> H   -1.3318642322205 2.79618349862206 0.77042775388472
| 33> H   -0.21611968189373 1.90564831593666 1.78545553183812
| 34> H   0.42864994743463 2.85121087753567 -1.06398377648756
| 35> C   2.3242870208968 1.08641171360084 -0.96001734406803
| 36> H   1.72584932238732 1.16824918121396 -1.87717007149945
| 37> C   3.41708571270509 0.058974760025 -1.02185872688748
| 38> H   4.12724300716636 0.31274686513956 -1.83007324829836
| 39> H   4.00594456548135 0.04449811082119 -0.09260628204888
| 40> C   2.8585178199238 -1.35656325204779 -1.31333729043581
| 41> H   2.38853182900536 -1.35404232233078 -2.31070621896579
| 42> H   3.71135694025569 -2.05914377072446 -1.36674985050525
| 43> C   1.85653204791836 -1.84943599246616 -0.29070963841566
| 44> H   -0.02503655366912 0.2264154854601 -0.19788217317762
| 45> H   0.33983799429531 -1.89290032258308 -1.70402634636117
| 46> C   2.6305449434104 1.85109164640248 1.42448148539398
| 47> H   2.89216757538044 2.88240885557687 1.71903348797846
| 48> H   1.96412177287796 1.46193237941795 2.21360196888005
| 49> H   3.5512504581957 1.25335210408477 1.44014908187721
| 50> C   2.39577045999963 -2.03508656061678 1.10371612562286
| 51> H   3.34420584081322 -2.59940575861081 1.08050324031839
| 52> H   2.6200573699913 -1.06396379440698 1.57643320104865
| 53> H   1.70080575044907 -2.57119771483779 1.7628672768206
| 54> H   -0.93735792365391 -3.48481844818318 -0.24022562786787
| 55> H   -2.52010256509034 -2.22579877182611 0.9521874650236
| 56> H   0.25006523735685 -0.65297413261151 2.09561996403643
| 57> *
| 58>
| 59>                          ****END OF INPUT****

CARTESIAN COORDINATES (ANGSTROEM)
---------------------------------
  C     -1.761034    0.927406   -1.165086
  C     -0.950406    0.749130    0.093172
  C     -1.654185   -0.270916    1.063638
  C     -1.842780   -1.631644    0.311637
  C     -2.579294   -1.453600   -1.032572
  C     -2.016693   -0.331867   -1.934238
  H     -2.582163   -2.412493   -1.579430
  H     -3.636223   -1.221697   -0.824211
  H     -1.073150   -0.680791   -2.395002
  H     -2.713165   -0.150538   -2.769214
  C     -2.486056    2.192287   -1.494230
  H     -1.822590    3.075798   -1.520075
  H     -2.978745    2.122863   -2.476700
  H     -3.275882    2.436933   -0.752733
  C     -0.576607   -2.533408    0.194244
  C     -0.504185    2.070412    0.737789
  C      0.576040   -2.060232   -0.648162
  H     -0.229739   -2.785789    1.205328
  C      0.696489    2.700418   -0.006105
  C      1.942465    1.844347    0.083526
  H      0.896247    3.699139    0.421811
  C     -0.811215   -0.494614    2.330188
  H     -0.877512    0.363745    3.014996
  H     -1.172227   -1.376201    2.885619
  C     -3.030237    0.264727    1.499536
  H     -2.923500    1.226095    2.026574
  H     -3.704523    0.429242    0.647113
  H     -3.524568   -0.438845    2.189948
  H     -1.331864    2.796183    0.770428
  H     -0.216120    1.905648    1.785456
  H      0.428650    2.851211   -1.063984
  C      2.324287    1.086412   -0.960017
  H      1.725849    1.168249   -1.877170
  C      3.417086    0.058975   -1.021859
  H      4.127243    0.312747   -1.830073
  H      4.005945    0.044498   -0.092606
  C      2.858518   -1.356563   -1.313337
  H      2.388532   -1.354042   -2.310706
  H      3.711357   -2.059144   -1.366750
  C      1.856532   -1.849436   -0.290710
  H     -0.025037    0.226415   -0.197882
  H      0.339838   -1.892900   -1.704026
  C      2.630545    1.851092    1.424481
  H      2.892168    2.882409    1.719033
  H      1.964122    1.461932    2.213602
  H      3.551250    1.253352    1.440149
  C      2.395770   -2.035087    1.103716
  H      3.344206   -2.599406    1.080503
  H      2.620057   -1.063964    1.576433
  H      1.700806   -2.571198    1.762867
  H     -0.937358   -3.484818   -0.240226
  H     -2.520103   -2.225799    0.952187
  H      0.250065   -0.652974    2.095620

 Total Charge           Charge          ....    0
 Multiplicity           Mult            ....    2
 Number of Electrons    NEL             ....  153
 Basis Dimension        Dim             ....  445

ORBITAL ENERGIES
----------------
                 SPIN UP ORBITALS
  NO   OCC          E(Eh)            E(eV)
   0   1.0000     -10.185574      -277.1636
   1   1.0000     -10.180796      -277.0335
   2   1.0000     -10.180081      -277.0141
   3   1.0000     -10.179253      -276.9916
   4   1.0000     -10.179142      -276.9885
   5   1.0000     -10.178795      -276.9791
   6   1.0000     -10.177968      -276.9566
   7   1.0000     -10.177428      -276.9419
   8   1.0000     -10.176405      -276.9140
   9   1.0000     -10.174595      -276.8648
  10   1.0000     -10.173176      -276.8262
  11   1.0000     -10.172805      -276.8161
  12   1.0000     -10.170836      -276.7625
  13   1.0000     -10.170601      -276.7561
  14   1.0000     -10.170019      -276.7403
  15   1.0000     -10.169143      -276.7164
  16   1.0000     -10.168599      -276.7016
  17   1.0000     -10.166886      -276.6550
  18   1.0000     -10.166145      -276.6349
  19   1.0000     -10.165304      -276.6120
  20   1.0000      -0.839704       -22.8495
  21   1.0000      -0.811843       -22.0914
  22   1.0000      -0.801133       -21.8000
  23   1.0000      -0.769429       -20.9372
  24   1.0000      -0.757652       -20.6168
  25   1.0000      -0.749808       -20.4033
  26   1.0000      -0.709962       -19.3191
  27   1.0000      -0.704341       -19.1661
  28   1.0000      -0.673360       -18.3231
  29   1.0000      -0.670173       -18.2363
  30   1.0000      -0.665631       -18.1128
  31   1.0000      -0.663784       -18.0625
  32   1.0000      -0.628882       -17.1127
  33   1.0000      -0.614026       -16.7085
  34   1.0000      -0.575703       -15.6657
  35   1.0000      -0.557273       -15.1642
  36   1.0000      -0.540336       -14.7033
  37   1.0000      -0.509090       -13.8530
  38   1.0000      -0.501680       -13.6514
  39   1.0000      -0.495946       -13.4954
  40   1.0000      -0.478694       -13.0259
  41   1.0000      -0.466759       -12.7012
  42   1.0000      -0.460105       -12.5201
  43   1.0000      -0.450553       -12.2602
  44   1.0000      -0.443336       -12.0638
  45   1.0000      -0.436559       -11.8794
  46   1.0000      -0.427201       -11.6247
  47   1.0000      -0.423431       -11.5221
  48   1.0000      -0.420505       -11.4425
  49   1.0000      -0.406680       -11.0663
  50   1.0000      -0.402876       -10.9628
  51   1.0000      -0.400564       -10.8999
  52   1.0000      -0.393934       -10.7195
  53   1.0000      -0.390568       -10.6279
  54   1.0000      -0.389849       -10.6083
  55   1.0000      -0.380556       -10.3555
  56   1.0000      -0.376809       -10.2535
  57   1.0000      -0.373092       -10.1524
  58   1.0000      -0.368220       -10.0198
  59   1.0000      -0.364380        -9.9153
  60   1.0000      -0.360594        -9.8123
  61   1.0000      -0.356452        -9.6996
  62   1.0000      -0.352868        -9.6020
  63   1.0000      -0.343817        -9.3557
  64   1.0000      -0.342829        -9.3289
  65   1.0000      -0.339019        -9.2252
  66   1.0000      -0.331755        -9.0275
  67   1.0000      -0.325737        -8.8637
  68   1.0000      -0.316951        -8.6247
  69   1.0000      -0.313715        -8.5366
  70   1.0000      -0.307215        -8.3598
  71   1.0000      -0.300413        -8.1746
  72   1.0000      -0.290188        -7.8964
  73   1.0000      -0.282816        -7.6958
  74   1.0000      -0.229020        -6.2320
  75   1.0000      -0.225658        -6.1405
  76   1.0000      -0.156232        -4.2513
  77   0.0000       0.021046         0.5727
  78   0.0000       0.023657         0.6437
  79   0.0000       0.047511         1.2928
  80   0.0000       0.062251         1.6939
  81   0.0000       0.065445         1.7808

                 SPIN DOWN ORBITALS
  NO   OCC          E(Eh)            E(eV)
   0   1.0000     -10.184342      -277.1300
   1   1.0000     -10.180790      -277.0334
   2   1.0000     -10.180086      -277.0142
   3   1.0000     -10.179349      -276.9942
   4   1.0000     -10.179040      -276.9858
   5   1.0000     -10.178788      -276.9789
   6   1.0000     -10.177967      -276.9566
   7   1.0000     -10.177430      -276.9420
   8   1.0000     -10.176394      -276.9138
   9   1.0000     -10.174581      -276.8644
  10   1.0000     -10.173843      -276.8443
  11   1.0000     -10.172183      -276.7992
  12   1.0000     -10.171775      -276.7881
  13   1.0000     -10.170543      -276.7546
  14   1.0000     -10.169129      -276.7161
  15   1.0000     -10.168582      -276.7012
  16   1.0000     -10.166862      -276.6544
  17   1.0000     -10.166201      -276.6364
  18   1.0000     -10.166123      -276.6343
  19   1.0000     -10.156051      -276.3602
  20   1.0000      -0.835595       -22.7377
  21   1.0000      -0.811145       -22.0724
  22   1.0000      -0.800608       -21.7856
  23   1.0000      -0.760103       -20.6834
  24   1.0000      -0.756341       -20.5811
  25   1.0000      -0.749533       -20.3958
  26   1.0000      -0.709347       -19.3023
  27   1.0000      -0.701075       -19.0772
  28   1.0000      -0.672919       -18.3111
  29   1.0000      -0.669448       -18.2166
  30   1.0000      -0.665123       -18.0989
  31   1.0000      -0.662803       -18.0358
  32   1.0000      -0.628430       -17.1004
  33   1.0000      -0.611025       -16.6268
  34   1.0000      -0.575538       -15.6612
  35   1.0000      -0.556073       -15.1315
  36   1.0000      -0.531133       -14.4529
  37   1.0000      -0.508862       -13.8468
  38   1.0000      -0.500978       -13.6323
  39   1.0000      -0.489350       -13.3159
  40   1.0000      -0.478195       -13.0124
  41   1.0000      -0.465516       -12.6673
  42   1.0000      -0.458021       -12.4634
  43   1.0000      -0.448568       -12.2061
  44   1.0000      -0.443142       -12.0585
  45   1.0000      -0.434843       -11.8327
  46   1.0000      -0.424351       -11.5472
  47   1.0000      -0.421086       -11.4583
  48   1.0000      -0.418699       -11.3934
  49   1.0000      -0.405525       -11.0349
  50   1.0000      -0.400578       -10.9003
  51   1.0000      -0.397667       -10.8211
  52   1.0000      -0.390498       -10.6260
  53   1.0000      -0.389252       -10.5921
  54   1.0000      -0.388115       -10.5611
  55   1.0000      -0.379486       -10.3263
  56   1.0000      -0.375706       -10.2235
  57   1.0000      -0.371403       -10.1064
  58   1.0000      -0.368098       -10.0165
  59   1.0000      -0.363479        -9.8908
  60   1.0000      -0.360010        -9.7964
  61   1.0000      -0.356213        -9.6931
  62   1.0000      -0.352586        -9.5944
  63   1.0000      -0.343134        -9.3372
  64   1.0000      -0.340779        -9.2731
  65   1.0000      -0.336045        -9.1442
  66   1.0000      -0.330836        -9.0025
  67   1.0000      -0.324854        -8.8397
  68   1.0000      -0.315774        -8.5926
  69   1.0000      -0.311812        -8.4848
  70   1.0000      -0.305214        -8.3053
  71   1.0000      -0.298367        -8.1190
  72   1.0000      -0.286384        -7.7929
  73   1.0000      -0.280922        -7.6443
  74   1.0000      -0.228912        -6.2290
  75   1.0000      -0.224605        -6.1118
  76   0.0000      -0.024077        -0.6552
  77   0.0000       0.021367         0.5814
  78   0.0000       0.024042         0.6542
  79   0.0000       0.047869         1.3026
  80   0.0000       0.063028         1.7151

MULLIKEN ATOMIC CHARGES AND SPIN POPULATIONS
--------------------------------------------
   0 C :   -0.300584    0.990522
   1 C :    0.049066   -0.084261
   2 C :   -0.246347    0.045011
   3 C :   -0.037466   -0.004817
   4 C :    0.063228    0.033513
   5 C :    0.152006   -0.084393
   6 H :   -0.022310    0.005257
   7 H :   -0.014497    0.000304
   8 H :   -0.013554    0.043304
   9 H :   -0.025555    0.002103
  10 C :    0.110413   -0.096411
  11 H :    0.006809    0.037055
  12 H :   -0.004805    0.003172
  13 H :    0.007444    0.063268
  14 C :    0.177816    0.000843
  15 C :    0.082474    0.003117
  16 C :   -0.090106   -0.003052
  17 H :   -0.026720   -0.000040
  18 C :    0.118840    0.001757
  19 C :   -0.189069    0.001739
  20 H :   -0.015875   -0.000174
  21 C :    0.095836    0.001560
  22 H :    0.001462    0.000053
  23 H :   -0.005491    0.002875
  24 C :    0.092986    0.002810
  25 H :   -0.002427    0.000614
  26 H :    0.007221   -0.001019
  27 H :   -0.007207   -0.000177
  28 H :   -0.011703   -0.000492
  29 H :   -0.027725   -0.001199
  30 H :   -0.010535   -0.000934
  31 C :   -0.059709    0.000436
  32 H :   -0.025678   -0.000094
  33 C :    0.096663    0.000180
  34 H :   -0.001215    0.000080
  35 H :   -0.011373    0.000007
  36 C :    0.073317   -0.000480
  37 H :   -0.012842   -0.000012
  38 H :   -0.003764    0.000254
  39 C :   -0.157707    0.006828
  40 H :    0.016635    0.027019
  41 H :   -0.030441    0.001041
  42 C :    0.093712    0.000050
  43 H :    0.007116   -0.000020
  44 H :    0.017712    0.000071
  45 H :    0.003230    0.000001
  46 C :    0.100043   -0.000473
  47 H :    0.003435    0.000076
  48 H :    0.016011    0.000482
  49 H :    0.006494    0.000022
  50 H :   -0.010813   -0.000109
  51 H :   -0.029402    0.002309
  52 H :   -0.005052    0.000424
Sum of atomic charges         :    0.0000000

LOEWDIN ATOMIC CHARGES AND SPIN POPULATIONS
-------------------------------------------
   0 C :   -0.031002    0.798153
   1 C :   -0.031704   -0.010925
   2 C :   -0.033312    0.044187
   3 C :   -0.017024   -0.002213
   4 C :   -0.024138    0.034300
   5 C :   -0.033636   -0.011931
   6 H :    0.015501    0.003573
   7 H :    0.018139    0.000049
   8 H :    0.021013    0.034596
   9 H :    0.018889    0.000651
  10 C :   -0.060338   -0.015958
  11 H :    0.024153    0.030185
  12 H :    0.024105    0.001433
  13 H :    0.023199    0.050818
  14 C :   -0.027606    0.000387
  15 C :   -0.019349    0.002258
  16 C :   -0.051232   -0.000631
  17 H :    0.018655    0.000060
  18 C :   -0.017763    0.000889
  19 C :   -0.036193    0.000508
  20 H :    0.020024    0.000041
  21 C :   -0.043859    0.001884
  22 H :    0.017379    0.000123
  23 H :    0.019248    0.002245
  24 C :   -0.042052    0.001628
  25 H :    0.018843    0.000551
  26 H :    0.017676    0.000710
  27 H :    0.018187    0.000217
  28 H :    0.016408   -0.000350
  29 H :    0.014837   -0.000855
  30 H :    0.021178    0.000195
  31 C :   -0.048707    0.000782
  32 H :    0.017428    0.000218
  33 C :   -0.031020    0.000240
  34 H :    0.027314    0.000068
  35 H :    0.017415    0.000027
  36 C :   -0.017784   -0.000050
  37 H :    0.020011   -0.000007
  38 H :    0.022091    0.000211
  39 C :   -0.037968    0.005139
  40 H :    0.029424    0.021715
  41 H :    0.014087    0.001667
  42 C :   -0.050306    0.000080
  43 H :    0.030115   -0.000014
  44 H :    0.027351    0.000051
  45 H :    0.021842    0.000011
  46 C :   -0.052245    0.000003
  47 H :    0.028401    0.000067
  48 H :    0.030198    0.000322
  49 H :    0.024629    0.000030
  50 H :    0.028467   -0.000071
  51 H :    0.019203    0.002232
  52 H :    0.021830    0.000503

  Mayer bond orders larger than 0.100000
B(  0-C ,  1-C ) :   1.0145 B(  0-C ,  5-C ) :   1.0895 B(  0-C , 10-C ) :   1.1334
B(  1-C ,  2-C ) :   0.9736 B(  1-C , 15-C ) :   1.0521 B(  1-C , 40-H ) :   0.8688
B(  2-C ,  3-C ) :   0.9901 B(  2-C , 21-C ) :   1.0623 B(  2-C , 24-C ) :   1.0340
B(  3-C ,  4-C ) :   1.0659 B(  3-C , 14-C ) :   1.0624 B(  3-C , 51-H ) :   0.8868
B(  4-C ,  5-C ) :   1.0822 B(  4-C ,  6-H ) :   0.9225 B(  4-C ,  7-H ) :   0.9245
B(  5-C ,  8-H ) :   0.9036 B(  5-C ,  9-H ) :   0.9115 B( 10-C , 11-H ) :   0.9336
B( 10-C , 12-H ) :   0.9442 B( 10-C , 13-H ) :   0.9292 B( 14-C , 16-C ) :   1.0735
B( 14-C , 17-H ) :   0.9073 B( 14-C , 50-H ) :   0.8957 B( 15-C , 18-C ) :   1.0839
B( 15-C , 28-H ) :   0.9088 B( 15-C , 29-H ) :   0.9213 B( 16-C , 39-C ) :   1.8742
B( 16-C , 41-H ) :   0.9306 B( 18-C , 19-C ) :   1.0546 B( 18-C , 20-H ) :   0.9163
B( 18-C , 30-H ) :   0.9188 B( 19-C , 31-C ) :   1.8883 B( 19-C , 42-C ) :   1.0930
B( 21-C , 22-H ) :   0.9473 B( 21-C , 23-H ) :   0.9441 B( 21-C , 52-H ) :   0.9480
B( 24-C , 25-H ) :   0.9576 B( 24-C , 26-H ) :   0.9560 B( 24-C , 27-H ) :   0.9554
B( 31-C , 32-H ) :   0.9367 B( 31-C , 33-C ) :   1.0547 B( 33-C , 34-H ) :   0.9113
B( 33-C , 35-H ) :   0.9314 B( 33-C , 36-C ) :   1.0623 B( 36-C , 37-H ) :   0.9290
B( 36-C , 38-H ) :   0.9182 B( 36-C , 39-C ) :   1.0547 B( 39-C , 46-C ) :   1.0941
B( 42-C , 43-H ) :   0.9386 B( 42-C , 44-H ) :   0.9397 B( 42-C , 45-H ) :   0.9451
B( 46-C , 47-H ) :   0.9368 B( 46-C , 48-H ) :   0.9343 B( 46-C , 49-H ) :   0.9419

Dispersion correction           -0.121406831
FINAL SINGLE POINT ENERGY      -780.924623825262
Dispersion correction             ... done (  0.0 sec)

DIPOLE MOMENT
-------------

Method             : SCF
Type of density    : Electron Density
Multiplicity       :   2
Irrep              :   0
Energy             :  -780.8032169943835470 Eh
Basis              : AO
                                X                 Y                 Z
Electronic contribution:      2.056455754      -1.484442490      -5.152498268
Nuclear contribution   :     -1.976479547       1.429694421       5.337571166
                        -----------------------------------------
Total Dipole Moment    :      0.079976207      -0.054748069       0.185072899
                        -----------------------------------------
Magnitude (a.u.)       :      0.208915108
Magnitude (Debye)      :      0.531020005

Rotational constants in cm-1:             0.014711             0.010495             0.008661
Rotational constants in MHz :           441.016637           314.621974           259.636389

                             ****ORCA TERMINATED NORMALLY****
TOTAL RUN TIME: 0 days 0 hours 3 minutes 9 seconds 636 msec
