                         Program Version 6.1.0  -  RELEASE   -
|  1> ! B3LYP def2-SVP d3 EnGrad
|  2> %pal nprocs 6 end
|  3> *xyz 0 1
|  4> H   -0.36346005092034 0.91488028851903 -1.86678971215426
|  5> C   -0.61857422555264 1.18604064273879 -0.83810321128358
|  6> C   0.12513834675882 0.55774613808897 0.18715083631543
|  7> H   -1.3317382697078 2.00396625904027 -0.67742530143856
|  8> H   -0.04749228767154 0.96119659314882 1.20784514260454
|  9> O   1.40469632428148 0.56573139694309 -0.23609495101141
| 10> H   1.60806087653993 -0.82633060473963 0.329815735161
| 11> O   1.00083244989933 -1.51606175205912 0.82551575332458
| 12> C   -0.22021426949813 -1.11320148728 0.42562464561922
| 13> H   -1.00455478986809 -1.2163134993781 1.19212119916961
| 14> H   -0.552694104261 -1.51765397502214 -0.54966013630654
| 15> *
| 16>
| 17>                          ****END OF INPUT****

CARTESIAN COORDINATES (ANGSTROEM)
---------------------------------
  H     -0.363460    0.914880   -1.866790
  C     -0.618574    1.186041   -0.838103
  C      0.125138    0.557746    0.187151
  H     -1.331738    2.003966   -0.677425
  H     -0.047492    0.961197    1.207845
  O      1.404696    0.565731   -0.236095
  H      1.608061   -0.826331    0.329816
  O      1.000832   -1.516062    0.825516
  C     -0.220214   -1.113201    0.425625
  H     -1.004555   -1.216313    1.192121
  H     -0.552694   -1.517654   -0.549660

 Total Charge           Charge          ....    0
 Multiplicity           Mult            ....    1
 Number of Electrons    NEL             ....   40
 Basis Dimension        Dim             ....  100

ORBITAL ENERGIES
----------------

  NO   OCC          E(Eh)            E(eV)
   0   2.0000     -19.125392      -520.4284
   1   2.0000     -19.103058      -519.8206
   2   2.0000     -10.264286      -279.3054
   3   2.0000     -10.251769      -278.9648
   4   2.0000     -10.251177      -278.9487
   5   2.0000      -1.032129       -28.0856
   6   2.0000      -0.960785       -26.1443
   7   2.0000      -0.757579       -20.6148
   8   2.0000      -0.661095       -17.9893
   9   2.0000      -0.581045       -15.8110
  10   2.0000      -0.516196       -14.0464
  11   2.0000      -0.507402       -13.8071
  12   2.0000      -0.463793       -12.6204
  13   2.0000      -0.448214       -12.1965
  14   2.0000      -0.412522       -11.2253
  15   2.0000      -0.387935       -10.5562
  16   2.0000      -0.326864        -8.8944
  17   2.0000      -0.281442        -7.6584
  18   2.0000      -0.261720        -7.1218
  19   2.0000      -0.238579        -6.4921
  20   0.0000      -0.138692        -3.7740
  21   0.0000       0.057386         1.5616
  22   0.0000       0.081330         2.2131
  23   0.0000       0.092205         2.5090
  24   0.0000       0.115269         3.1366

MULLIKEN ATOMIC CHARGES
-----------------------
   0 H :    0.076808
   1 C :    0.053951
   2 C :    0.070391
   3 H :    0.066214
   4 H :    0.029357
   5 O :   -0.429447
   6 H :    0.197265
   7 O :   -0.290418
   8 C :    0.217169
   9 H :    0.013888
  10 H :   -0.005178
Sum of atomic charges:   -0.0000000

LOEWDIN ATOMIC CHARGES
----------------------
   0 H :    0.043097
   1 C :    0.139631
   2 C :   -0.007437
   3 H :    0.035547
   4 H :    0.035787
   5 O :   -0.284302
   6 H :    0.055821
   7 O :   -0.111111
   8 C :    0.083209
   9 H :    0.010311
  10 H :   -0.000552

  Mayer bond orders larger than 0.100000
B(  0-H ,  1-C ) :   0.9435 B(  1-C ,  2-C ) :   1.2518 B(  1-C ,  3-H ) :   0.9522
B(  1-C ,  5-O ) :   0.3852 B(  1-C ,  7-O ) :   0.1186 B(  2-C ,  4-H ) :   0.8771
B(  2-C ,  5-O ) :   1.1999 B(  2-C ,  8-C ) :   0.7806 B(  5-O ,  6-H ) :   0.2649
B(  6-H ,  7-O ) :   0.7838 B(  7-O ,  8-C ) :   1.1904 B(  8-C ,  9-H ) :   0.9409
B(  8-C , 10-H ) :   0.9259

Dispersion correction           -0.012202712
FINAL SINGLE POINT ENERGY      -267.887378959269
Dispersion correction             ... done (  0.1 sec)

DIPOLE MOMENT
-------------

Method             : SCF
Type of density    : Electron Density
Multiplicity       :   1
Irrep              :   0
Energy             :  -267.8751762468669995 Eh
Basis              : AO
                                X                 Y                 Z
Electronic contribution:      2.206243380      -0.247289382       0.449952000
Nuclear contribution   :     -3.706491098       0.844160781      -0.818434618
                        -----------------------------------------
Total Dipole Moment    :     -1.500247717       0.596871399      -0.368482618
                        -----------------------------------------
Magnitude (a.u.)       :      1.656133485
Magnitude (Debye)      :      4.209556780

Rotational constants in cm-1:             0.333510             0.137859             0.107719
Rotational constants in MHz :          9998.384713          4132.914129          3229.336279

                             ****ORCA TERMINATED NORMALLY****
TOTAL RUN TIME: 0 days 0 hours 0 minutes 12 seconds 380 msec
