                         Program Version 6.1.0  -  RELEASE   -
|  1> ! B3LYP def2-SVP d3 EnGrad
|  2> %pal nprocs 6 end
|  3> *xyz 0 1
|  4> C   -0.75296830594274 -0.44282012282759 0.0155270889952
|  5> H   -1.318317344282 -0.70096666005989 -0.88486805028004
|  6> H   -0.04662189653323 1.49945105680831 -0.85515040370857
|  7> C   0.00125727313404 0.86220605194774 0.03314825945648
|  8> C   0.75202919605638 -0.44122406380111 -0.06484745973846
|  9> H   0.05083991143166 1.41731051290819 0.97483948145468
| 10> H   1.31673312407871 -0.77906900329597 0.8091490557429
| 11> H   -1.22056049792626 -0.7815600569572 0.944900030748
| 12> H   1.21866253998346 -0.6980017147225 -1.0205910026702
| 13> *
| 14>
| 15>                          ****END OF INPUT****

CARTESIAN COORDINATES (ANGSTROEM)
---------------------------------
  C     -0.752968   -0.442820    0.015527
  H     -1.318317   -0.700967   -0.884868
  H     -0.046622    1.499451   -0.855150
  C      0.001257    0.862206    0.033148
  C      0.752029   -0.441224   -0.064847
  H      0.050840    1.417311    0.974839
  H      1.316733   -0.779069    0.809149
  H     -1.220560   -0.781560    0.944900
  H      1.218663   -0.698002   -1.020591

 Total Charge           Charge          ....    0
 Multiplicity           Mult            ....    1
 Number of Electrons    NEL             ....   24
 Basis Dimension        Dim             ....   72

ORBITAL ENERGIES
----------------

  NO   OCC          E(Eh)            E(eV)
   0   2.0000     -10.183992      -277.1205
   1   2.0000     -10.183880      -277.1175
   2   2.0000     -10.183852      -277.1167
   3   2.0000      -0.838962       -22.8293
   4   2.0000      -0.584056       -15.8930
   5   2.0000      -0.584048       -15.8928
   6   2.0000      -0.486562       -13.2400
   7   2.0000      -0.462089       -12.5741
   8   2.0000      -0.357207        -9.7201
   9   2.0000      -0.357186        -9.7195
  10   2.0000      -0.293893        -7.9972
  11   2.0000      -0.293780        -7.9941
  12   0.0000       0.070337         1.9140
  13   0.0000       0.078675         2.1408
  14   0.0000       0.115514         3.1433
  15   0.0000       0.115520         3.1435
  16   0.0000       0.145082         3.9479

MULLIKEN ATOMIC CHARGES
-----------------------
   0 C :   -0.058363
   1 H :    0.029294
   2 H :    0.029611
   3 C :   -0.059718
   4 C :   -0.058202
   5 H :    0.029559
   6 H :    0.029242
   7 H :    0.029292
   8 H :    0.029286
Sum of atomic charges:   -0.0000000

LOEWDIN ATOMIC CHARGES
----------------------
   0 C :   -0.046920
   1 H :    0.023470
   2 H :    0.023527
   3 C :   -0.047116
   4 C :   -0.046900
   5 H :    0.023533
   6 H :    0.023448
   7 H :    0.023475
   8 H :    0.023484

  Mayer bond orders larger than 0.100000
B(  0-C ,  1-H ) :   0.9632 B(  0-C ,  3-C ) :   1.0265 B(  0-C ,  4-C ) :   1.0263
B(  0-C ,  7-H ) :   0.9632 B(  2-H ,  3-C ) :   0.9632 B(  3-C ,  4-C ) :   1.0264
B(  3-C ,  5-H ) :   0.9632 B(  4-C ,  6-H ) :   0.9632 B(  4-C ,  8-H ) :   0.9632

Dispersion correction           -0.007770088
FINAL SINGLE POINT ENERGY      -117.731611235972
Dispersion correction             ... done (  0.1 sec)

DIPOLE MOMENT
-------------

Method             : SCF
Type of density    : Electron Density
Multiplicity       :   1
Irrep              :   0
Energy             :  -117.7238411478026165 Eh
Basis              : AO
                                X                 Y                 Z
Electronic contribution:     -0.000032316      -0.000758093      -0.000552497
Nuclear contribution   :      0.000079940       0.000675129       0.000500748
                        -----------------------------------------
Total Dipole Moment    :      0.000047624      -0.000082963      -0.000051748
                        -----------------------------------------
Magnitude (a.u.)       :      0.000108761
Magnitude (Debye)      :      0.000276448

Rotational constants in cm-1:             0.668012             0.667838             0.418267
Rotational constants in MHz :         20026.504895         20021.292035         12539.336235

                             ****ORCA TERMINATED NORMALLY****
TOTAL RUN TIME: 0 days 0 hours 0 minutes 7 seconds 450 msec
