                         Program Version 6.1.0  -  RELEASE   -
|  1> ! B3LYP def2-SVP d3 EnGrad
|  2> %pal nprocs 6 end
|  3> *xyz 0 1
|  4> C   -1.46389288185209 1.16991521836219 -0.5042661191032
|  5> C   -2.20314035468432 -0.12225221642722 -0.30797588398807
|  6> H   -1.63292148423919 1.83197430948123 0.36278040364856
|  7> H   -1.87445880432901 1.6956806337153 -1.38602655116852
|  8> C   -2.90411484241656 -0.45611331366218 0.77819019379859
|  9> H   -2.13296911483792 -0.84057236757293 -1.1364744753769
| 10> C   1.45883505543428 -0.73624576693585 0.48407752181121
| 11> H   -3.41593870906557 -1.41928232609971 0.85765712521681
| 12> H   -2.99158645355137 0.2251858259814 1.63179573984434
| 13> C   0.75454144734777 0.39799304423885 0.47105616492082
| 14> H   1.57820125230637 -1.34554476461971 -0.41859855290233
| 15> H   1.94236501665236 -1.10040349201164 1.39500529570867
| 16> C   0.05251002165555 0.97716367655302 -0.72353071567133
| 17> H   0.65437433049865 0.97072901902244 1.40332590861694
| 18> H   0.22387372231808 0.33519084800645 -1.60516857408504
| 19> H   0.492201798763 1.96328167196839 -0.96169748127056
| 20> *
| 21>
| 22>                          ****END OF INPUT****

CARTESIAN COORDINATES (ANGSTROEM)
---------------------------------
  C     -1.463893    1.169915   -0.504266
  C     -2.203140   -0.122252   -0.307976
  H     -1.632921    1.831974    0.362780
  H     -1.874459    1.695681   -1.386027
  C     -2.904115   -0.456113    0.778190
  H     -2.132969   -0.840572   -1.136474
  C      1.458835   -0.736246    0.484078
  H     -3.415939   -1.419282    0.857657
  H     -2.991586    0.225186    1.631796
  C      0.754541    0.397993    0.471056
  H      1.578201   -1.345545   -0.418599
  H      1.942365   -1.100403    1.395005
  C      0.052510    0.977164   -0.723531
  H      0.654374    0.970729    1.403326
  H      0.223874    0.335191   -1.605169
  H      0.492202    1.963282   -0.961697

 Total Charge           Charge          ....    0
 Multiplicity           Mult            ....    1
 Number of Electrons    NEL             ....   46
 Basis Dimension        Dim             ....  134

ORBITAL ENERGIES
----------------

  NO   OCC          E(Eh)            E(eV)
   0   2.0000     -10.188201      -277.2351
   1   2.0000     -10.188134      -277.2332
   2   2.0000     -10.184549      -277.1357
   3   2.0000     -10.184425      -277.1323
   4   2.0000     -10.175805      -276.8977
   5   2.0000     -10.175716      -276.8953
   6   2.0000      -0.803467       -21.8634
   7   2.0000      -0.757000       -20.5990
   8   2.0000      -0.703310       -19.1380
   9   2.0000      -0.623293       -16.9607
  10   2.0000      -0.546105       -14.8603
  11   2.0000      -0.543026       -14.7765
  12   2.0000      -0.467109       -12.7107
  13   2.0000      -0.454681       -12.3725
  14   2.0000      -0.430144       -11.7048
  15   2.0000      -0.428876       -11.6703
  16   2.0000      -0.396898       -10.8002
  17   2.0000      -0.365587        -9.9481
  18   2.0000      -0.359091        -9.7714
  19   2.0000      -0.333665        -9.0795
  20   2.0000      -0.331504        -9.0207
  21   2.0000      -0.256116        -6.9693
  22   2.0000      -0.254154        -6.9159
  23   0.0000       0.015747         0.4285
  24   0.0000       0.016307         0.4437
  25   0.0000       0.074774         2.0347
  26   0.0000       0.074908         2.0383
  27   0.0000       0.096435         2.6241

MULLIKEN ATOMIC CHARGES
-----------------------
   0 C :    0.066570
   1 C :   -0.064221
   2 H :   -0.004957
   3 H :    0.008899
   4 C :   -0.028846
   5 H :   -0.005123
   6 C :   -0.029249
   7 H :    0.017468
   8 H :    0.009414
   9 C :   -0.064465
  10 H :    0.009515
  11 H :    0.017378
  12 C :    0.068315
  13 H :   -0.005443
  14 H :   -0.005137
  15 H :    0.009881
Sum of atomic charges:    0.0000000

LOEWDIN ATOMIC CHARGES
----------------------
   0 C :   -0.029646
   1 C :   -0.023690
   2 H :    0.022809
   3 H :    0.029768
   4 C :   -0.063156
   5 H :    0.022176
   6 C :   -0.063470
   7 H :    0.022660
   8 H :    0.018958
   9 C :   -0.023637
  10 H :    0.018995
  11 H :    0.022647
  12 C :   -0.029413
  13 H :    0.022110
  14 H :    0.022824
  15 H :    0.030067

  Mayer bond orders larger than 0.100000
B(  0-C ,  1-C ) :   1.0510 B(  0-C ,  2-H ) :   0.9394 B(  0-C ,  3-H ) :   0.9226
B(  0-C , 12-C ) :   1.0633 B(  1-C ,  4-C ) :   2.0199 B(  1-C ,  5-H ) :   0.9590
B(  4-C ,  7-H ) :   0.9491 B(  4-C ,  8-H ) :   0.9520 B(  6-C ,  9-C ) :   2.0200
B(  6-C , 10-H ) :   0.9520 B(  6-C , 11-H ) :   0.9489 B(  9-C , 12-C ) :   1.0502
B(  9-C , 13-H ) :   0.9590 B( 12-C , 14-H ) :   0.9394 B( 12-C , 15-H ) :   0.9224

Dispersion correction           -0.021063744
FINAL SINGLE POINT ENERGY      -234.296941177004
Dispersion correction             ... done (  0.0 sec)

DIPOLE MOMENT
-------------

Method             : SCF
Type of density    : Electron Density
Multiplicity       :   1
Irrep              :   0
Energy             :  -234.2758774331583425 Eh
Basis              : AO
                                X                 Y                 Z
Electronic contribution:     -0.013655097      -0.071095918       0.043330301
Nuclear contribution   :      0.015290274       0.218497569      -0.153625642
                        -----------------------------------------
Total Dipole Moment    :      0.001635178       0.147401651      -0.110295341
                        -----------------------------------------
Magnitude (a.u.)       :      0.184105901
Magnitude (Debye)      :      0.467960010

Rotational constants in cm-1:             0.187179             0.072481             0.058971
Rotational constants in MHz :          5611.484944          2172.920862          1767.910084

                             ****ORCA TERMINATED NORMALLY****
TOTAL RUN TIME: 0 days 0 hours 0 minutes 18 seconds 746 msec
