                         Program Version 6.1.0  -  RELEASE   -
|  1> ! B3LYP def2-SVP d3 EnGrad
|  2> %pal nprocs 6 end
|  3> *xyz 0 1
|  4> C   -1.81649243009156 -0.10414142707173 -0.46351084706631
|  5> C   -0.48054945323926 -0.52955743624167 0.07329809364905
|  6> N   0.45240114884917 0.44525145922534 -0.07796498448917
|  7> C   1.82593259424252 0.08355620049183 0.28699638786088
|  8> H   -0.05996320634238 0.23619101951966 1.048380786149
|  9> H   -2.63127295998839 -0.39811233079713 0.2169441930371
| 10> H   -1.88542721186766 0.9669859132363 -0.7328428273582
| 11> H   -1.96593997918085 -0.70171086369661 -1.38257611356677
| 12> H   2.36360389230076 -0.08988144281929 -0.65850388712758
| 13> H   2.31795707168762 0.92900948671054 0.79285964228513
| 14> H   1.87975053363001 -0.83759057855725 0.89691955662689
| 15> *
| 16>
| 17>                          ****END OF INPUT****

CARTESIAN COORDINATES (ANGSTROEM)
---------------------------------
  C     -1.816492   -0.104141   -0.463511
  C     -0.480549   -0.529557    0.073298
  N      0.452401    0.445251   -0.077965
  C      1.825933    0.083556    0.286996
  H     -0.059963    0.236191    1.048381
  H     -2.631273   -0.398112    0.216944
  H     -1.885427    0.966986   -0.732843
  H     -1.965940   -0.701711   -1.382576
  H      2.363604   -0.089881   -0.658504
  H      2.317957    0.929009    0.792860
  H      1.879751   -0.837591    0.896920

 Total Charge           Charge          ....    0
 Multiplicity           Mult            ....    1
 Number of Electrons    NEL             ....   32
 Basis Dimension        Dim             ....   91

ORBITAL ENERGIES
----------------

  NO   OCC          E(Eh)            E(eV)
   0   2.0000     -14.364238      -390.8708
   1   2.0000     -10.216497      -278.0050
   2   2.0000     -10.215121      -277.9676
   3   2.0000     -10.177062      -276.9319
   4   2.0000      -0.950784       -25.8722
   5   2.0000      -0.743147       -20.2221
   6   2.0000      -0.672996       -18.3132
   7   2.0000      -0.524783       -14.2801
   8   2.0000      -0.488901       -13.3037
   9   2.0000      -0.447399       -12.1743
  10   2.0000      -0.430175       -11.7057
  11   2.0000      -0.410435       -11.1685
  12   2.0000      -0.375154       -10.2085
  13   2.0000      -0.354677        -9.6513
  14   2.0000      -0.324052        -8.8179
  15   2.0000      -0.190050        -5.1715
  16   0.0000      -0.040162        -1.0929
  17   0.0000       0.040190         1.0936
  18   0.0000       0.082889         2.2555
  19   0.0000       0.099227         2.7001
  20   0.0000       0.123678         3.3655

MULLIKEN ATOMIC CHARGES
-----------------------
   0 C :    0.053652
   1 C :   -0.185162
   2 N :   -0.188196
   3 C :    0.112597
   4 H :    0.073797
   5 H :    0.027383
   6 H :   -0.002512
   7 H :    0.037477
   8 H :    0.036801
   9 H :    0.023624
  10 H :    0.010539
Sum of atomic charges:   -0.0000000

LOEWDIN ATOMIC CHARGES
----------------------
   0 C :   -0.099448
   1 C :   -0.125902
   2 N :   -0.047234
   3 C :   -0.003811
   4 H :    0.112916
   5 H :    0.033105
   6 H :    0.011591
   7 H :    0.050515
   8 H :    0.035712
   9 H :    0.020225
  10 H :    0.012332

  Mayer bond orders larger than 0.100000
B(  0-C ,  1-C ) :   1.0050 B(  0-C ,  5-H ) :   0.9570 B(  0-C ,  6-H ) :   0.9279
B(  0-C ,  7-H ) :   0.9366 B(  1-C ,  2-N ) :   1.1890 B(  1-C ,  4-H ) :   0.5002
B(  2-N ,  3-C ) :   0.9937 B(  2-N ,  4-H ) :   0.5732 B(  3-C ,  8-H ) :   0.9648
B(  3-C ,  9-H ) :   0.9691 B(  3-C , 10-H ) :   0.9370

Dispersion correction           -0.010423945
FINAL SINGLE POINT ENERGY      -172.885797471614
Dispersion correction             ... done (  0.1 sec)

DIPOLE MOMENT
-------------

Method             : SCF
Type of density    : Electron Density
Multiplicity       :   1
Irrep              :   0
Energy             :  -172.8753735266118952 Eh
Basis              : AO
                                X                 Y                 Z
Electronic contribution:      0.299211574       0.151124665      -0.293759068
Nuclear contribution   :     -0.060210982       0.131409990       0.416955996
                        -----------------------------------------
Total Dipole Moment    :      0.239000592       0.282534655       0.123196928
                        -----------------------------------------
Magnitude (a.u.)       :      0.390031533
Magnitude (Debye)      :      0.991381371

Rotational constants in cm-1:             1.235703             0.136062             0.130980
Rotational constants in MHz :         37045.433229          4079.025621          3926.678364

                             ****ORCA TERMINATED NORMALLY****
TOTAL RUN TIME: 0 days 0 hours 0 minutes 10 seconds 401 msec
