                         Program Version 6.1.0  -  RELEASE   -
|  1> ! B3LYP def2-SVP d3 EnGrad
|  2> %pal nprocs 6 end
|  3> *xyz 0 1
|  4> C   0.11872954793916 -1.11010604911068 -0.25794622695822
|  5> H   0.11367330185558 -2.1608245865173 -0.54776122401583
|  6> H   -0.54025208014841 -1.02086288496832 0.87681918855627
|  7> C   1.2161018602427 -0.22344855080995 -0.19680880806856
|  8> H   2.26348588673867 -0.51474458498521 -0.26910873292073
|  9> C   0.72391087922123 1.07317799098308 0.02406559702541
| 10> H   1.34338404586034 1.96022278216218 0.16886225128106
| 11> C   -1.10772576498408 -0.28714948658626 -0.05605085878505
| 12> H   -2.1251008628638 -0.65877574721647 -0.17793106251347
| 13> C   -0.6772788181289 1.04712419118721 0.11458474098459
| 14> H   -1.32892799573249 1.89538692586171 0.32127513541453
| 15> *
| 16>
| 17>                          ****END OF INPUT****

CARTESIAN COORDINATES (ANGSTROEM)
---------------------------------
  C      0.118730   -1.110106   -0.257946
  H      0.113673   -2.160825   -0.547761
  H     -0.540252   -1.020863    0.876819
  C      1.216102   -0.223449   -0.196809
  H      2.263486   -0.514745   -0.269109
  C      0.723911    1.073178    0.024066
  H      1.343384    1.960223    0.168862
  C     -1.107726   -0.287149   -0.056051
  H     -2.125101   -0.658776   -0.177931
  C     -0.677279    1.047124    0.114585
  H     -1.328928    1.895387    0.321275

 Total Charge           Charge          ....    0
 Multiplicity           Mult            ....    1
 Number of Electrons    NEL             ....   36
 Basis Dimension        Dim             ....  100

ORBITAL ENERGIES
----------------

  NO   OCC          E(Eh)            E(eV)
   0   2.0000     -10.206243      -277.7260
   1   2.0000     -10.206039      -277.7204
   2   2.0000     -10.172471      -276.8070
   3   2.0000     -10.170998      -276.7669
   4   2.0000     -10.170963      -276.7660
   5   2.0000      -0.868976       -23.6460
   6   2.0000      -0.711647       -19.3649
   7   2.0000      -0.687903       -18.7188
   8   2.0000      -0.538215       -14.6456
   9   2.0000      -0.535183       -14.5631
  10   2.0000      -0.515013       -14.0142
  11   2.0000      -0.444543       -12.0966
  12   2.0000      -0.393974       -10.7206
  13   2.0000      -0.374279       -10.1846
  14   2.0000      -0.371377       -10.1057
  15   2.0000      -0.364500        -9.9186
  16   2.0000      -0.253416        -6.8958
  17   2.0000      -0.218858        -5.9554
  18   0.0000       0.029889         0.8133
  19   0.0000       0.032655         0.8886
  20   0.0000       0.072141         1.9631
  21   0.0000       0.099712         2.7133
  22   0.0000       0.117300         3.1919

MULLIKEN ATOMIC CHARGES
-----------------------
   0 C :   -0.002146
   1 H :    0.013169
   2 H :    0.095476
   3 C :   -0.031128
   4 H :   -0.020343
   5 C :    0.006224
   6 H :   -0.020175
   7 C :   -0.003044
   8 H :    0.013118
   9 C :   -0.030787
  10 H :   -0.020362
Sum of atomic charges:    0.0000000

LOEWDIN ATOMIC CHARGES
----------------------
   0 C :   -0.029815
   1 H :    0.032555
   2 H :    0.138829
   3 C :   -0.082787
   4 H :    0.020892
   5 C :   -0.040693
   6 H :    0.020197
   7 C :   -0.029855
   8 H :    0.032518
   9 C :   -0.082730
  10 H :    0.020889

  Mayer bond orders larger than 0.100000
B(  0-C ,  1-H ) :   0.9872 B(  0-C ,  2-H ) :   0.4708 B(  0-C ,  3-C ) :   1.3587
B(  0-C ,  7-C ) :   0.8143 B(  0-C ,  9-C ) :   0.1111 B(  2-H ,  7-C ) :   0.4706
B(  3-C ,  4-H ) :   1.0063 B(  3-C ,  5-C ) :   1.4065 B(  3-C ,  7-C ) :   0.1113
B(  5-C ,  6-H ) :   0.9943 B(  5-C ,  9-C ) :   1.4061 B(  7-C ,  8-H ) :   0.9872
B(  7-C ,  9-C ) :   1.3590 B(  9-C , 10-H ) :   1.0064

Dispersion correction           -0.014365321
FINAL SINGLE POINT ENERGY      -193.804367012720
Dispersion correction             ... done (  0.0 sec)

DIPOLE MOMENT
-------------

Method             : SCF
Type of density    : Electron Density
Multiplicity       :   1
Irrep              :   0
Energy             :  -193.7900016920359008 Eh
Basis              : AO
                                X                 Y                 Z
Electronic contribution:      0.272688119       0.535847717      -0.525078707
Nuclear contribution   :     -0.513298287      -0.936819599       0.697846172
                        -----------------------------------------
Total Dipole Moment    :     -0.240610168      -0.400971883       0.172767465
                        -----------------------------------------
Magnitude (a.u.)       :      0.498518105
Magnitude (Debye)      :      1.267132321

Rotational constants in cm-1:             0.286255             0.282582             0.145052
Rotational constants in MHz :          8581.712023          8471.581925          4348.551124

                             ****ORCA TERMINATED NORMALLY****
TOTAL RUN TIME: 0 days 0 hours 0 minutes 13 seconds 74 msec
