                         Program Version 6.1.0  -  RELEASE   -
|  1> ! B3LYP def2-SVP d3 EnGrad
|  2> %pal nprocs 6 end
|  3> *xyz 0 1
|  4> C   -1.60487473977116 -1.72612636839725 0.56678417871611
|  5> C   -0.84039451641922 -0.97270171565993 -0.30633744420424
|  6> C   -1.02180489971194 0.49613955793971 -0.14067603259812
|  7> C   0.07125836821243 1.1076695316033 0.62359143543838
|  8> C   1.33700753211596 0.35680520921572 0.12386286715414
|  9> C   1.83301516955615 0.83947518063949 -1.07628421374632
| 10> H   -0.6870592545143 -1.37267146173127 -1.32021090202001
| 11> H   -1.86668066508782 -1.33047999827312 1.5521919364389
| 12> H   -2.03706105086427 -2.69259060020777 0.2863842320466
| 13> H   0.58953684919817 -0.77115409695577 -0.02510858731923
| 14> H   2.06808314511708 -0.02264884543823 0.85627825455468
| 15> H   2.81713297073971 0.55208929246298 -1.45792356748174
| 16> H   1.21183573993335 1.48222111343388 -1.70669818847224
| 17> H   0.13296599211933 2.20759936656685 0.52345602556607
| 18> H   0.01364294515898 0.89902674299171 1.7164334705399
| 19> H   -2.01660358578244 0.9473470918097 -0.21574346461286
| 20> *
| 21>
| 22>                          ****END OF INPUT****

CARTESIAN COORDINATES (ANGSTROEM)
---------------------------------
  C     -1.604875   -1.726126    0.566784
  C     -0.840395   -0.972702   -0.306337
  C     -1.021805    0.496140   -0.140676
  C      0.071258    1.107670    0.623591
  C      1.337008    0.356805    0.123863
  C      1.833015    0.839475   -1.076284
  H     -0.687059   -1.372671   -1.320211
  H     -1.866681   -1.330480    1.552192
  H     -2.037061   -2.692591    0.286384
  H      0.589537   -0.771154   -0.025109
  H      2.068083   -0.022649    0.856278
  H      2.817133    0.552089   -1.457924
  H      1.211836    1.482221   -1.706698
  H      0.132966    2.207599    0.523456
  H      0.013643    0.899027    1.716433
  H     -2.016604    0.947347   -0.215743

 Total Charge           Charge          ....    0
 Multiplicity           Mult            ....    1
 Number of Electrons    NEL             ....   46
 Basis Dimension        Dim             ....  134

ORBITAL ENERGIES
----------------

  NO   OCC          E(Eh)            E(eV)
   0   2.0000     -10.199670      -277.5471
   1   2.0000     -10.194341      -277.4021
   2   2.0000     -10.192931      -277.3637
   3   2.0000     -10.191868      -277.3348
   4   2.0000     -10.190896      -277.3084
   5   2.0000     -10.176859      -276.9264
   6   2.0000      -0.824306       -22.4305
   7   2.0000      -0.754180       -20.5223
   8   2.0000      -0.695180       -18.9168
   9   2.0000      -0.606753       -16.5106
  10   2.0000      -0.582344       -15.8464
  11   2.0000      -0.521680       -14.1956
  12   2.0000      -0.479958       -13.0603
  13   2.0000      -0.469293       -12.7701
  14   2.0000      -0.439082       -11.9480
  15   2.0000      -0.409701       -11.1485
  16   2.0000      -0.392694       -10.6857
  17   2.0000      -0.377382       -10.2691
  18   2.0000      -0.368417       -10.0251
  19   2.0000      -0.336508        -9.1569
  20   2.0000      -0.329754        -8.9731
  21   2.0000      -0.249412        -6.7868
  22   2.0000      -0.164826        -4.4852
  23   0.0000      -0.082940        -2.2569
  24   0.0000      -0.007547        -0.2054
  25   0.0000       0.068053         1.8518
  26   0.0000       0.091645         2.4938
  27   0.0000       0.096889         2.6365

MULLIKEN ATOMIC CHARGES
-----------------------
   0 C :   -0.076852
   1 C :    0.006834
   2 C :   -0.163938
   3 C :    0.094325
   4 C :   -0.067381
   5 C :   -0.048086
   6 H :    0.033796
   7 H :    0.020085
   8 H :    0.020509
   9 H :    0.050977
  10 H :    0.010209
  11 H :    0.030653
  12 H :    0.034140
  13 H :    0.012325
  14 H :    0.023855
  15 H :    0.018547
Sum of atomic charges:    0.0000000

LOEWDIN ATOMIC CHARGES
----------------------
   0 C :   -0.085348
   1 C :   -0.059958
   2 C :   -0.050083
   3 C :   -0.027839
   4 C :   -0.041672
   5 C :   -0.034396
   6 H :    0.044866
   7 H :    0.015252
   8 H :    0.016967
   9 H :    0.071730
  10 H :    0.025877
  11 H :    0.020655
  12 H :    0.022298
  13 H :    0.026307
  14 H :    0.038809
  15 H :    0.016535

  Mayer bond orders larger than 0.100000
B(  0-C ,  1-C ) :   1.5382 B(  0-C ,  2-C ) :   0.3157 B(  0-C ,  7-H ) :   0.9624
B(  0-C ,  8-H ) :   0.9552 B(  1-C ,  2-C ) :   1.0082 B(  1-C ,  6-H ) :   0.9166
B(  1-C ,  9-H ) :   0.4090 B(  2-C ,  3-C ) :   1.1487 B(  2-C ,  5-C ) :   0.3306
B(  2-C , 15-H ) :   0.9726 B(  3-C ,  4-C ) :   0.9808 B(  3-C , 13-H ) :   0.9333
B(  3-C , 14-H ) :   0.8864 B(  4-C ,  5-C ) :   1.5378 B(  4-C ,  9-H ) :   0.5154
B(  4-C , 10-H ) :   0.9149 B(  5-C , 11-H ) :   0.9613 B(  5-C , 12-H ) :   0.9583

Dispersion correction           -0.022614950
FINAL SINGLE POINT ENERGY      -234.129430928795
Dispersion correction             ... done (  0.0 sec)

DIPOLE MOMENT
-------------

Method             : SCF
Type of density    : Electron Density
Multiplicity       :   1
Irrep              :   0
Energy             :  -234.1068159783707472 Eh
Basis              : AO
                                X                 Y                 Z
Electronic contribution:     -0.311430618       0.339099373      -0.401781637
Nuclear contribution   :      0.495573277      -0.222249682       0.458845571
                        -----------------------------------------
Total Dipole Moment    :      0.184142659       0.116849691       0.057063934
                        -----------------------------------------
Magnitude (a.u.)       :      0.225429948
Magnitude (Debye)      :      0.572997392

Rotational constants in cm-1:             0.234340             0.074660             0.067858
Rotational constants in MHz :          7025.347220          2238.265211          2034.324442

                             ****ORCA TERMINATED NORMALLY****
TOTAL RUN TIME: 0 days 0 hours 0 minutes 21 seconds 16 msec
