                         Program Version 6.1.0  -  RELEASE   -
|  1> ! B3LYP def2-SVP d3 EnGrad
|  2> %pal nprocs 6 end
|  3> *xyz 0 1
|  4> C   1.26229167131091 -0.18660517863954 -0.02013972029871
|  5> O   0.85757844771684 -1.20940891917919 0.64910133332534
|  6> C   -1.18715938419295 0.44507921979558 -0.1459097079554
|  7> O   -1.3923833943046 -0.62934903500846 0.53349495409844
|  8> H   1.79045629923914 0.63173874208417 0.51544966817495
|  9> H   1.61819881350395 -0.33265998504512 -1.06282102083608
| 10> H   0.14894639475032 0.5130561161041 -0.32552459574265
| 11> H   -1.46662719133934 0.46297754290099 -1.22135739912438
| 12> H   -0.32673468710454 -1.12453386194038 0.72145544838297
| 13> H   -1.30456696957973 1.42970535892786 0.35625103997554
| 14> *
| 15>
| 16>                          ****END OF INPUT****

CARTESIAN COORDINATES (ANGSTROEM)
---------------------------------
  C      1.262292   -0.186605   -0.020140
  O      0.857578   -1.209409    0.649101
  C     -1.187159    0.445079   -0.145910
  O     -1.392383   -0.629349    0.533495
  H      1.790456    0.631739    0.515450
  H      1.618199   -0.332660   -1.062821
  H      0.148946    0.513056   -0.325525
  H     -1.466627    0.462978   -1.221357
  H     -0.326735   -1.124534    0.721455
  H     -1.304567    1.429705    0.356251

 Total Charge           Charge          ....    0
 Multiplicity           Mult            ....    1
 Number of Electrons    NEL             ....   34
 Basis Dimension        Dim             ....   86

ORBITAL ENERGIES
----------------

  NO   OCC          E(Eh)            E(eV)
   0   2.0000     -19.130827      -520.5763
   1   2.0000     -19.130727      -520.5735
   2   2.0000     -10.276936      -279.6497
   3   2.0000     -10.276886      -279.6483
   4   2.0000      -1.051637       -28.6165
   5   2.0000      -1.003421       -27.3045
   6   2.0000      -0.693496       -18.8710
   7   2.0000      -0.626102       -17.0371
   8   2.0000      -0.561807       -15.2875
   9   2.0000      -0.487879       -13.2759
  10   2.0000      -0.468908       -12.7596
  11   2.0000      -0.463208       -12.6045
  12   2.0000      -0.436880       -11.8881
  13   2.0000      -0.347609        -9.4589
  14   2.0000      -0.326128        -8.8744
  15   2.0000      -0.283575        -7.7165
  16   2.0000      -0.262398        -7.1402
  17   0.0000      -0.061088        -1.6623
  18   0.0000       0.052362         1.4248
  19   0.0000       0.095866         2.6086
  20   0.0000       0.116638         3.1739
  21   0.0000       0.136832         3.7234

MULLIKEN ATOMIC CHARGES
-----------------------
   0 C :    0.204253
   1 O :   -0.328691
   2 C :    0.204373
   3 O :   -0.328861
   4 H :    0.027064
   5 H :    0.026871
   6 H :   -0.089432
   7 H :    0.026815
   8 H :    0.230624
   9 H :    0.026983
Sum of atomic charges:   -0.0000000

LOEWDIN ATOMIC CHARGES
----------------------
   0 C :    0.107339
   1 O :   -0.154550
   2 C :    0.107381
   3 O :   -0.154845
   4 H :    0.007892
   5 H :    0.007713
   6 H :    0.023705
   7 H :    0.007672
   8 H :    0.039818
   9 H :    0.007875

  Mayer bond orders larger than 0.100000
B(  0-C ,  1-O ) :   1.4388 B(  0-C ,  3-O ) :   0.1111 B(  0-C ,  4-H ) :   0.9256
B(  0-C ,  5-H ) :   0.9258 B(  0-C ,  6-H ) :   0.4874 B(  1-O ,  2-C ) :   0.1110
B(  1-O ,  8-H ) :   0.5231 B(  2-C ,  3-O ) :   1.4393 B(  2-C ,  6-H ) :   0.4871
B(  2-C ,  7-H ) :   0.9258 B(  2-C ,  9-H ) :   0.9255 B(  3-O ,  8-H ) :   0.5226

Dispersion correction           -0.008887296
FINAL SINGLE POINT ENERGY      -229.895865000580
Dispersion correction             ... done (  0.1 sec)

DIPOLE MOMENT
-------------

Method             : SCF
Type of density    : Electron Density
Multiplicity       :   1
Irrep              :   0
Energy             :  -229.8869777050177277 Eh
Basis              : AO
                                X                 Y                 Z
Electronic contribution:     -0.771489236      -2.653754280       1.706468714
Nuclear contribution   :      1.078898003       3.709148476      -2.385902061
                        -----------------------------------------
Total Dipole Moment    :      0.307408767       1.055394196      -0.679433346
                        -----------------------------------------
Magnitude (a.u.)       :      1.292279664
Magnitude (Debye)      :      3.284713866

Rotational constants in cm-1:             0.496323             0.176363             0.137507
Rotational constants in MHz :         14879.398421          5287.220072          4122.362834

                             ****ORCA TERMINATED NORMALLY****
TOTAL RUN TIME: 0 days 0 hours 0 minutes 9 seconds 317 msec
