                         Program Version 6.1.0  -  RELEASE   -
|  1> ! B3LYP def2-SVP d3 EnGrad
|  2> %pal nprocs 6 end
|  3> *xyz 0 1
|  4> C   -0.08694930078416 -0.08595705067457 0.10384675628529
|  5> C   0.59434059689522 1.17872979622303 0.1019426451442
|  6> C   1.9524828308094 1.27504733111031 0.38117393085524
|  7> C   2.71251595106283 0.14027454442908 0.68681204993423
|  8> C   2.0737081958076 -1.11200498925226 0.69826516146014
|  9> C   0.72681556648816 -1.23548230969269 0.40564319218493
| 10> O   -0.67554098983873 -0.35834555856185 -1.51421185890795
| 11> C   -1.91094432670474 0.3545713122269 -1.60983708017226
| 12> C   -2.36224463614426 -0.47066907861412 -0.48504644369772
| 13> C   -1.60518775789994 -0.15087734745373 0.72098597160076
| 14> H   0.0193867755215 2.0868359883562 -0.09895047278806
| 15> H   2.42528221158388 2.2613769830614 0.36679142741162
| 16> H   3.77673093418636 0.22514438606086 0.91523346039179
| 17> H   2.64562707835999 -2.01171882830171 0.94252320355134
| 18> H   0.24865823628134 -2.21855165862453 0.41079948607696
| 19> H   -1.8119696703193 1.43746273504726 -1.4130991170819
| 20> H   -2.82520637221176 -1.44166021850608 -0.67781216136801
| 21> H   -1.65629585425303 -0.89837349821015 1.52126915202528
| 22> H   -1.8446282737778 0.84352599636426 1.12489924926888
| 23> H   -2.39658119506253 0.18067146501237 -2.58122855217476
| 24> *
| 25>
| 26>                          ****END OF INPUT****

CARTESIAN COORDINATES (ANGSTROEM)
---------------------------------
  C     -0.086949   -0.085957    0.103847
  C      0.594341    1.178730    0.101943
  C      1.952483    1.275047    0.381174
  C      2.712516    0.140275    0.686812
  C      2.073708   -1.112005    0.698265
  C      0.726816   -1.235482    0.405643
  O     -0.675541   -0.358346   -1.514212
  C     -1.910944    0.354571   -1.609837
  C     -2.362245   -0.470669   -0.485046
  C     -1.605188   -0.150877    0.720986
  H      0.019387    2.086836   -0.098950
  H      2.425282    2.261377    0.366791
  H      3.776731    0.225144    0.915233
  H      2.645627   -2.011719    0.942523
  H      0.248658   -2.218552    0.410799
  H     -1.811970    1.437463   -1.413099
  H     -2.825206   -1.441660   -0.677812
  H     -1.656296   -0.898373    1.521269
  H     -1.844628    0.843526    1.124899
  H     -2.396581    0.180671   -2.581229

 Total Charge           Charge          ....    0
 Multiplicity           Mult            ....    1
 Number of Electrons    NEL             ....   72
 Basis Dimension        Dim             ....  190

ORBITAL ENERGIES
----------------

  NO   OCC          E(Eh)            E(eV)
   0   2.0000     -19.137874      -520.7680
   1   2.0000     -10.251003      -278.9440
   2   2.0000     -10.246657      -278.8257
   3   2.0000     -10.244730      -278.7733
   4   2.0000     -10.207175      -277.7514
   5   2.0000     -10.173546      -276.8363
   6   2.0000     -10.173160      -276.8258
   7   2.0000     -10.169438      -276.7245
   8   2.0000     -10.168868      -276.7090
   9   2.0000     -10.163458      -276.5617
  10   2.0000      -1.004261       -27.3273
  11   2.0000      -0.829188       -22.5633
  12   2.0000      -0.784470       -21.3465
  13   2.0000      -0.734415       -19.9844
  14   2.0000      -0.720304       -19.6005
  15   2.0000      -0.661331       -17.9957
  16   2.0000      -0.598232       -16.2787
  17   2.0000      -0.578461       -15.7407
  18   2.0000      -0.569261       -15.4904
  19   2.0000      -0.518693       -14.1144
  20   2.0000      -0.492015       -13.3884
  21   2.0000      -0.471182       -12.8215
  22   2.0000      -0.450865       -12.2687
  23   2.0000      -0.438003       -11.9187
  24   2.0000      -0.427819       -11.6416
  25   2.0000      -0.404040       -10.9945
  26   2.0000      -0.400099       -10.8872
  27   2.0000      -0.396774       -10.7968
  28   2.0000      -0.381354       -10.3772
  29   2.0000      -0.345692        -9.4067
  30   2.0000      -0.335224        -9.1219
  31   2.0000      -0.324927        -8.8417
  32   2.0000      -0.299510        -8.1501
  33   2.0000      -0.282841        -7.6965
  34   2.0000      -0.236601        -6.4382
  35   2.0000      -0.170485        -4.6391
  36   0.0000      -0.096386        -2.6228
  37   0.0000       0.013046         0.3550
  38   0.0000       0.042252         1.1497
  39   0.0000       0.057347         1.5605
  40   0.0000       0.066783         1.8173

MULLIKEN ATOMIC CHARGES
-----------------------
   0 C :    0.060106
   1 C :   -0.035395
   2 C :    0.039491
   3 C :   -0.011873
   4 C :    0.036507
   5 C :   -0.010719
   6 O :   -0.368374
   7 C :    0.253776
   8 C :   -0.082966
   9 C :    0.142822
  10 H :   -0.035882
  11 H :   -0.029921
  12 H :   -0.029687
  13 H :   -0.027969
  14 H :   -0.035187
  15 H :    0.006249
  16 H :    0.056507
  17 H :    0.021712
  18 H :    0.022798
  19 H :    0.028004
Sum of atomic charges:   -0.0000000

LOEWDIN ATOMIC CHARGES
----------------------
   0 C :    0.096119
   1 C :   -0.078378
   2 C :   -0.023714
   3 C :   -0.066036
   4 C :   -0.024228
   5 C :   -0.059517
   6 O :   -0.216527
   7 C :    0.066242
   8 C :    0.093285
   9 C :   -0.032317
  10 H :    0.013391
  11 H :    0.024032
  12 H :    0.020224
  13 H :    0.024622
  14 H :    0.017513
  15 H :    0.008160
  16 H :    0.035486
  17 H :    0.033734
  18 H :    0.040709
  19 H :    0.027201

  Mayer bond orders larger than 0.100000
B(  0-C ,  1-C ) :   1.1762 B(  0-C ,  5-C ) :   1.1726 B(  0-C ,  6-O ) :   0.5555
B(  0-C ,  9-C ) :   0.8855 B(  1-C ,  2-C ) :   1.4727 B(  1-C , 10-H ) :   0.9682
B(  2-C ,  3-C ) :   1.3559 B(  2-C , 11-H ) :   0.9796 B(  3-C ,  4-C ) :   1.3174
B(  3-C , 12-H ) :   0.9834 B(  4-C ,  5-C ) :   1.5119 B(  4-C , 13-H ) :   0.9808
B(  5-C , 14-H ) :   0.9706 B(  6-O ,  7-C ) :   0.9321 B(  6-O ,  8-C ) :   0.4188
B(  7-C ,  8-C ) :   1.0973 B(  7-C , 15-H ) :   0.9169 B(  7-C , 19-H ) :   0.9443
B(  8-C ,  9-C ) :   1.1435 B(  8-C , 16-H ) :   0.9601 B(  9-C , 17-H ) :   0.9441
B(  9-C , 18-H ) :   0.9086

Dispersion correction           -0.036466268
FINAL SINGLE POINT ENERGY      -423.493998327260
Dispersion correction             ... done (  0.0 sec)

DIPOLE MOMENT
-------------

Method             : SCF
Type of density    : Electron Density
Multiplicity       :   1
Irrep              :   0
Energy             :  -423.4575320592073808 Eh
Basis              : AO
                                X                 Y                 Z
Electronic contribution:      1.001110644      -0.792614667      -1.084037715
Nuclear contribution   :     -2.245994601       0.888845633       1.272673106
                        -----------------------------------------
Total Dipole Moment    :     -1.244883957       0.096230966       0.188635391
                        -----------------------------------------
Magnitude (a.u.)       :      1.262766715
Magnitude (Debye)      :      3.209697910

Rotational constants in cm-1:             0.103834             0.033902             0.031005
Rotational constants in MHz :          3112.868595          1016.368030           929.503822

                             ****ORCA TERMINATED NORMALLY****
TOTAL RUN TIME: 0 days 0 hours 0 minutes 41 seconds 173 msec
