                         Program Version 6.1.0  -  RELEASE   -
|  1> ! B3LYP def2-SVP d3 EnGrad
|  2> %pal nprocs 6 end
|  3> *xyz 0 1
|  4> C   -1.55777489115969 0.30400492065676 -0.49378497498101
|  5> C   -0.24829162666159 0.02279427413032 -0.59321920809706
|  6> H   -1.91666243896113 1.33567542947679 -0.42441064230894
|  7> H   -2.31381507681405 -0.48720677429486 -0.49308003696414
|  8> C   0.80692586295381 1.09824081414844 -0.57903736699651
|  9> H   0.36955383496742 2.10792467805798 -0.56926500679587
| 10> H   1.47114195612914 1.01371488234804 -1.45628579448017
| 11> H   1.43608864961735 0.97668522192571 0.31900566790538
| 12> C   0.26809765383056 -1.38995916458643 -0.67494909322725
| 13> H   -0.54762928470719 -2.12553137583994 -0.73480504561878
| 14> H   0.87602793097754 -1.61431742984494 0.21813866958022
| 15> H   0.92151476511996 -1.5194065566273 -1.55505453463975
| 16> O   0.33763434657377 -0.24417419506564 2.44699221643727
| 17> H   0.45474534403387 0.6442364048509 2.80915005659263
| 18> H   -0.35755710589976 -0.12268110933583 1.78060499359397
| 19> *
| 20>
| 21>                          ****END OF INPUT****

CARTESIAN COORDINATES (ANGSTROEM)
---------------------------------
  C     -1.557775    0.304005   -0.493785
  C     -0.248292    0.022794   -0.593219
  H     -1.916662    1.335675   -0.424411
  H     -2.313815   -0.487207   -0.493080
  C      0.806926    1.098241   -0.579037
  H      0.369554    2.107925   -0.569265
  H      1.471142    1.013715   -1.456286
  H      1.436089    0.976685    0.319006
  C      0.268098   -1.389959   -0.674949
  H     -0.547629   -2.125531   -0.734805
  H      0.876028   -1.614317    0.218139
  H      0.921515   -1.519407   -1.555055
  O      0.337634   -0.244174    2.446992
  H      0.454745    0.644236    2.809150
  H     -0.357557   -0.122681    1.780605

 Total Charge           Charge          ....    0
 Multiplicity           Mult            ....    1
 Number of Electrons    NEL             ....   42
 Basis Dimension        Dim             ....  120

ORBITAL ENERGIES
----------------

  NO   OCC          E(Eh)            E(eV)
   0   2.0000     -19.116174      -520.1775
   1   2.0000     -10.199153      -277.5331
   2   2.0000     -10.183603      -277.1099
   3   2.0000     -10.179818      -277.0069
   4   2.0000     -10.177560      -276.9455
   5   2.0000      -0.974325       -26.5127
   6   2.0000      -0.800837       -21.7919
   7   2.0000      -0.683691       -18.6042
   8   2.0000      -0.673683       -18.3319
   9   2.0000      -0.520009       -14.1502
  10   2.0000      -0.507365       -13.8061
  11   2.0000      -0.452623       -12.3165
  12   2.0000      -0.444647       -12.0995
  13   2.0000      -0.430935       -11.7263
  14   2.0000      -0.384875       -10.4730
  15   2.0000      -0.370574       -10.0838
  16   2.0000      -0.366233        -9.9657
  17   2.0000      -0.363426        -9.8893
  18   2.0000      -0.342490        -9.3196
  19   2.0000      -0.288765        -7.8577
  20   2.0000      -0.253179        -6.8893
  21   0.0000       0.010875         0.2959
  22   0.0000       0.046163         1.2562
  23   0.0000       0.082606         2.2478
  24   0.0000       0.104514         2.8440
  25   0.0000       0.107562         2.9269

MULLIKEN ATOMIC CHARGES
-----------------------
   0 C :   -0.042582
   1 C :   -0.238969
   2 H :    0.005761
   3 H :    0.010216
   4 C :    0.079788
   5 H :    0.003741
   6 H :    0.017118
   7 H :    0.010714
   8 C :    0.079842
   9 H :    0.006274
  10 H :    0.035987
  11 H :    0.014281
  12 O :   -0.285064
  13 H :    0.150301
  14 H :    0.152591
Sum of atomic charges:    0.0000000

LOEWDIN ATOMIC CHARGES
----------------------
   0 C :   -0.093533
   1 C :   -0.024205
   2 H :    0.017466
   3 H :    0.019582
   4 C :   -0.050551
   5 H :    0.024617
   6 H :    0.031255
   7 H :    0.026539
   8 C :   -0.048529
   9 H :    0.026725
  10 H :    0.036689
  11 H :    0.030189
  12 O :   -0.138720
  13 H :    0.076272
  14 H :    0.066203

  Mayer bond orders larger than 0.100000
B(  0-C ,  1-C ) :   1.9536 B(  0-C ,  2-H ) :   0.9441 B(  0-C ,  3-H ) :   0.9435
B(  1-C ,  4-C ) :   1.0689 B(  1-C ,  8-C ) :   1.0692 B(  4-C ,  5-H ) :   0.9582
B(  4-C ,  6-H ) :   0.9503 B(  4-C ,  7-H ) :   0.9398 B(  8-C ,  9-H ) :   0.9575
B(  8-C , 10-H ) :   0.9450 B(  8-C , 11-H ) :   0.9510 B( 12-O , 13-H ) :   1.0009
B( 12-O , 14-H ) :   0.9785

Dispersion correction           -0.017355925
FINAL SINGLE POINT ENERGY      -233.343687286287
Dispersion correction             ... done (  0.0 sec)

DIPOLE MOMENT
-------------

Method             : SCF
Type of density    : Electron Density
Multiplicity       :   1
Irrep              :   0
Energy             :  -233.3263313614309880 Eh
Basis              : AO
                                X                 Y                 Z
Electronic contribution:     -0.848915655      -0.055249801       1.216087453
Nuclear contribution   :      0.752131439       0.607652780      -1.448210801
                        -----------------------------------------
Total Dipole Moment    :     -0.096784216       0.552402979      -0.232123348
                        -----------------------------------------
Magnitude (a.u.)       :      0.606957564
Magnitude (Debye)      :      1.542763521

Rotational constants in cm-1:             0.153117             0.091514             0.088745
Rotational constants in MHz :          4590.323696          2743.521968          2660.499465

                             ****ORCA TERMINATED NORMALLY****
TOTAL RUN TIME: 0 days 0 hours 0 minutes 15 seconds 4 msec
