                         Program Version 6.1.0  -  RELEASE   -
|  1> ! B3LYP def2-SVP d3 EnGrad
|  2> %pal nprocs 6 end
|  3> *xyz 0 1
|  4> C   2.15052439679137 -0.18220904864333 -0.64373728652182
|  5> C   1.27419693625464 0.59467335540654 0.32085294296565
|  6> H   3.19169131871198 0.11924065009191 -0.44855981234887
|  7> H   1.90072298747528 0.04037143596041 -1.69114163621235
|  8> H   2.05288798579433 -1.25894566332987 -0.45690335694504
|  9> O   1.29701432606708 1.92316875120228 -0.11322299234921
| 10> O   0.80681101320885 2.7524178266513 0.94233418763742
| 11> H   1.13069092243128 2.20551577857332 1.70984881818353
| 12> O   1.43649383709633 0.43649952565009 1.62921357575414
| 13> C   -0.45506185615852 0.10050780853529 0.12081618227914
| 14> C   -0.68074488868113 -1.22233676892349 0.35661665325938
| 15> C   -1.83694474435244 -2.05389480600174 -0.07825557766566
| 16> H   0.08058032930252 -1.73638502490429 0.96045684212974
| 17> H   -2.59735503874089 -1.48498441909527 -0.62963446895195
| 18> H   -2.31069960162838 -2.54611841068977 0.78866879132181
| 19> H   -1.47144168518634 -2.87179960361097 -0.72665835902268
| 20> C   -1.34014123491667 1.02142708015085 -0.66768168335251
| 21> H   0.04646105880083 0.35346821813185 1.26987729970433
| 22> H   -2.39245916044503 0.69612448840801 -0.66830834598051
| 23> H   -1.00092915178238 1.07442776344016 -1.7156099171105
| 24> H   -1.28229775004273 2.03883106299673 -0.25897185677407
| 25> *
| 26>
| 27>                          ****END OF INPUT****

CARTESIAN COORDINATES (ANGSTROEM)
---------------------------------
  C      2.150524   -0.182209   -0.643737
  C      1.274197    0.594673    0.320853
  H      3.191691    0.119241   -0.448560
  H      1.900723    0.040371   -1.691142
  H      2.052888   -1.258946   -0.456903
  O      1.297014    1.923169   -0.113223
  O      0.806811    2.752418    0.942334
  H      1.130691    2.205516    1.709849
  O      1.436494    0.436500    1.629214
  C     -0.455062    0.100508    0.120816
  C     -0.680745   -1.222337    0.356617
  C     -1.836945   -2.053895   -0.078256
  H      0.080580   -1.736385    0.960457
  H     -2.597355   -1.484984   -0.629634
  H     -2.310700   -2.546118    0.788669
  H     -1.471442   -2.871800   -0.726658
  C     -1.340141    1.021427   -0.667682
  H      0.046461    0.353468    1.269877
  H     -2.392459    0.696124   -0.668308
  H     -1.000929    1.074428   -1.715610
  H     -1.282298    2.038831   -0.258972

 Total Charge           Charge          ....    0
 Multiplicity           Mult            ....    1
 Number of Electrons    NEL             ....   72
 Basis Dimension        Dim             ....  186

ORBITAL ENERGIES
----------------

  NO   OCC          E(Eh)            E(eV)
   0   2.0000     -19.193578      -522.2838
   1   2.0000     -19.169611      -521.6316
   2   2.0000     -19.076953      -519.1103
   3   2.0000     -10.314894      -280.6825
   4   2.0000     -10.240151      -278.6487
   5   2.0000     -10.215726      -277.9840
   6   2.0000     -10.203030      -277.6385
   7   2.0000     -10.190052      -277.2854
   8   2.0000     -10.189608      -277.2733
   9   2.0000      -1.127668       -30.6854
  10   2.0000      -0.979892       -26.6642
  11   2.0000      -0.884299       -24.0630
  12   2.0000      -0.825813       -22.4715
  13   2.0000      -0.742017       -20.1913
  14   2.0000      -0.723746       -19.6941
  15   2.0000      -0.679273       -18.4840
  16   2.0000      -0.593337       -16.1455
  17   2.0000      -0.561358       -15.2753
  18   2.0000      -0.523421       -14.2430
  19   2.0000      -0.489554       -13.3214
  20   2.0000      -0.461052       -12.5459
  21   2.0000      -0.455173       -12.3859
  22   2.0000      -0.445949       -12.1349
  23   2.0000      -0.438091       -11.9211
  24   2.0000      -0.424313       -11.5461
  25   2.0000      -0.407584       -11.0909
  26   2.0000      -0.403488       -10.9795
  27   2.0000      -0.397964       -10.8291
  28   2.0000      -0.388512       -10.5719
  29   2.0000      -0.378427       -10.2975
  30   2.0000      -0.370610       -10.0848
  31   2.0000      -0.337465        -9.1829
  32   2.0000      -0.299169        -8.1408
  33   2.0000      -0.264212        -7.1896
  34   2.0000      -0.257751        -7.0138
  35   2.0000      -0.227072        -6.1790
  36   0.0000      -0.073628        -2.0035
  37   0.0000       0.038578         1.0498
  38   0.0000       0.045482         1.2376
  39   0.0000       0.069112         1.8806
  40   0.0000       0.080069         2.1788

MULLIKEN ATOMIC CHARGES
-----------------------
   0 C :    0.121823
   1 C :    0.152492
   2 H :    0.037363
   3 H :    0.018128
   4 H :    0.008715
   5 O :   -0.191130
   6 O :   -0.150774
   7 H :    0.184462
   8 O :   -0.458685
   9 C :   -0.263587
  10 C :   -0.089192
  11 C :    0.077487
  12 H :    0.041946
  13 H :    0.028584
  14 H :    0.044002
  15 H :    0.043490
  16 C :    0.133521
  17 H :    0.190999
  18 H :    0.007420
  19 H :    0.025828
  20 H :    0.037109
Sum of atomic charges:    0.0000000

LOEWDIN ATOMIC CHARGES
----------------------
   0 C :   -0.053899
   1 C :    0.103928
   2 H :    0.042621
   3 H :    0.031790
   4 H :    0.029742
   5 O :   -0.050631
   6 O :   -0.060415
   7 H :    0.050561
   8 O :   -0.365679
   9 C :   -0.094229
  10 C :    0.066439
  11 C :   -0.054617
  12 H :    0.037064
  13 H :    0.033368
  14 H :    0.048611
  15 H :    0.051906
  16 C :   -0.055211
  17 H :    0.137127
  18 H :    0.023547
  19 H :    0.039123
  20 H :    0.038854

  Mayer bond orders larger than 0.100000
B(  0-C ,  1-C ) :   1.0084 B(  0-C ,  2-H ) :   0.9428 B(  0-C ,  3-H ) :   0.9481
B(  0-C ,  4-H ) :   0.9520 B(  1-C ,  5-O ) :   1.0281 B(  1-C ,  8-O ) :   1.3491
B(  1-C ,  9-C ) :   0.5758 B(  5-O ,  6-O ) :   0.9411 B(  6-O ,  7-H ) :   0.8902
B(  7-H ,  8-O ) :   0.1446 B(  8-O , 17-H ) :   0.3641 B(  9-C , 10-C ) :   1.6511
B(  9-C , 16-C ) :   1.0535 B(  9-C , 17-H ) :   0.4267 B( 10-C , 11-C ) :   1.0929
B( 10-C , 12-H ) :   0.9338 B( 10-C , 17-H ) :   0.1094 B( 11-C , 13-H ) :   0.9602
B( 11-C , 14-H ) :   0.9403 B( 11-C , 15-H ) :   0.9338 B( 16-C , 18-H ) :   0.9452
B( 16-C , 19-H ) :   0.9434 B( 16-C , 20-H ) :   0.9389

Dispersion correction           -0.031033820
FINAL SINGLE POINT ENERGY      -460.743355276195
Dispersion correction             ... done (  0.0 sec)

DIPOLE MOMENT
-------------

Method             : SCF
Type of density    : Electron Density
Multiplicity       :   1
Irrep              :   0
Energy             :  -460.7123214562255953 Eh
Basis              : AO
                                X                 Y                 Z
Electronic contribution:      5.085093093       6.503207034       3.630838909
Nuclear contribution   :     -6.138952732      -8.001221840      -4.310379117
                        -----------------------------------------
Total Dipole Moment    :     -1.053859639      -1.498014806      -0.679540208
                        -----------------------------------------
Magnitude (a.u.)       :      1.953571957
Magnitude (Debye)      :      4.965585293

Rotational constants in cm-1:             0.079832             0.036961             0.031924
Rotational constants in MHz :          2393.307552          1108.056752           957.054495

                             ****ORCA TERMINATED NORMALLY****
TOTAL RUN TIME: 0 days 0 hours 0 minutes 33 seconds 101 msec
