                         Program Version 6.1.0  -  RELEASE   -
|  1> ! B3LYP def2-SVP d3 EnGrad
|  2> %pal nprocs 6 end
|  3> *xyz 0 1
|  4> C   -0.93094524760193 0.72716245510684 -7.5596056e-07
|  5> H   -1.42200034687263 1.15507625645076 0.89151084524779
|  6> H   -1.42197694201678 1.15507375659278 -0.89152660304276
|  7> C   -1.00188525672488 -0.8024011629225 1.117484e-08
|  8> H   -1.51296820068043 -1.19839454133962 -0.89062446970174
|  9> H   -1.51293559977617 -1.1983960057412 0.89064252982657
| 10> F   0.3852924177254 1.15704535065037 1.66517614e-05
| 11> H   0.0265731759474 -1.19516510879743 -1.920930554e-05
| 12> *
| 13>
| 14>                          ****END OF INPUT****

CARTESIAN COORDINATES (ANGSTROEM)
---------------------------------
  C     -0.930945    0.727162   -0.000001
  H     -1.422000    1.155076    0.891511
  H     -1.421977    1.155074   -0.891527
  C     -1.001885   -0.802401    0.000000
  H     -1.512968   -1.198395   -0.890624
  H     -1.512936   -1.198396    0.890643
  F      0.385292    1.157045    0.000017
  H      0.026573   -1.195165   -0.000019

 Total Charge           Charge          ....    0
 Multiplicity           Mult            ....    1
 Number of Electrons    NEL             ....   26
 Basis Dimension        Dim             ....   67

ORBITAL ENERGIES
----------------

  NO   OCC          E(Eh)            E(eV)
   0   2.0000     -24.649874      -670.7572
   1   2.0000     -10.255383      -279.0632
   2   2.0000     -10.185313      -277.1565
   3   2.0000      -1.154196       -31.4073
   4   2.0000      -0.746736       -20.3197
   5   2.0000      -0.617940       -16.8150
   6   2.0000      -0.487032       -13.2528
   7   2.0000      -0.485908       -13.2222
   8   2.0000      -0.444892       -12.1061
   9   2.0000      -0.393005       -10.6942
  10   2.0000      -0.384074       -10.4512
  11   2.0000      -0.329850        -8.9757
  12   2.0000      -0.318970        -8.6796
  13   0.0000       0.063016         1.7147
  14   0.0000       0.093229         2.5369
  15   0.0000       0.094963         2.5841
  16   0.0000       0.121935         3.3180
  17   0.0000       0.169602         4.6151

MULLIKEN ATOMIC CHARGES
-----------------------
   0 C :    0.253569
   1 H :    0.004519
   2 H :    0.004519
   3 C :   -0.057019
   4 H :    0.021951
   5 H :    0.021952
   6 F :   -0.286529
   7 H :    0.037038
Sum of atomic charges:   -0.0000000

LOEWDIN ATOMIC CHARGES
----------------------
   0 C :    0.122772
   1 H :    0.009770
   2 H :    0.009770
   3 C :   -0.082733
   4 H :    0.028505
   5 H :    0.028505
   6 F :   -0.154726
   7 H :    0.038137

  Mayer bond orders larger than 0.100000
B(  0-C ,  1-H ) :   0.9653 B(  0-C ,  2-H ) :   0.9653 B(  0-C ,  3-C ) :   1.0842
B(  0-C ,  6-F ) :   0.9909 B(  3-C ,  4-H ) :   0.9720 B(  3-C ,  5-H ) :   0.9720
B(  3-C ,  7-H ) :   0.9679

Dispersion correction           -0.005691029
FINAL SINGLE POINT ENERGY      -178.829076081279
Dispersion correction             ... done (  0.1 sec)

DIPOLE MOMENT
-------------

Method             : SCF
Type of density    : Electron Density
Multiplicity       :   1
Irrep              :   0
Energy             :  -178.8233850521535544 Eh
Basis              : AO
                                X                 Y                 Z
Electronic contribution:      3.507701049       3.532050971       0.000045574
Nuclear contribution   :     -4.132669003      -3.824343938      -0.000054033
                        -----------------------------------------
Total Dipole Moment    :     -0.624967954      -0.292292967      -0.000008459
                        -----------------------------------------
Magnitude (a.u.)       :      0.689942115
Magnitude (Debye)      :      1.753693488

Rotational constants in cm-1:             1.213323             0.306453             0.269723
Rotational constants in MHz :         36374.516223          9187.222513          8086.101027

                             ****ORCA TERMINATED NORMALLY****
TOTAL RUN TIME: 0 days 0 hours 0 minutes 6 seconds 927 msec
