                         Program Version 6.1.0  -  RELEASE   -
|  1> ! B3LYP def2-SVP d3 EnGrad
|  2> %pal nprocs 6 end
|  3> *xyz 0 1
|  4> C   1.71583906027564 0.35497317635926 0.22557972141694
|  5> C   0.29553686571826 0.89483051337527 0.10830048337611
|  6> C   -0.62580874820732 0.3169890448664 -0.82302148069121
|  7> C   -0.76761275044747 -1.09451385792069 -0.92070068268788
|  8> O   -1.62928745907537 1.05186053875363 -1.30224876466658
|  9> H   2.32154899512947 0.53443816185109 -0.67936558743178
| 10> H   1.7186315892937 -0.72842215277914 0.42270907239122
| 11> H   2.23133281956818 0.83476316073788 1.07193456336938
| 12> H   0.16578137458675 -1.66062090757065 -1.01651223496215
| 13> H   -1.57927932689777 -1.4482345029699 -1.56456073789963
| 14> H   -0.9983219983776 -1.17120874617358 0.39666337029588
| 15> H   -1.52196643620885 1.97201336622529 -1.01505687908475
| 16> H   0.23507885273855 1.99379788233409 0.16485614743819
| 17> H   -0.32317765353763 0.25977160200814 1.09685764460338
| 18> O   -0.95964312272953 -0.78818330225185 1.70088387177151
| 19> H   -0.27865206182902 -1.32225397684524 2.13368149276138
| 20> *
| 21>
| 22>                          ****END OF INPUT****

CARTESIAN COORDINATES (ANGSTROEM)
---------------------------------
  C      1.715839    0.354973    0.225580
  C      0.295537    0.894831    0.108300
  C     -0.625809    0.316989   -0.823021
  C     -0.767613   -1.094514   -0.920701
  O     -1.629287    1.051861   -1.302249
  H      2.321549    0.534438   -0.679366
  H      1.718632   -0.728422    0.422709
  H      2.231333    0.834763    1.071935
  H      0.165781   -1.660621   -1.016512
  H     -1.579279   -1.448235   -1.564561
  H     -0.998322   -1.171209    0.396663
  H     -1.521966    1.972013   -1.015057
  H      0.235079    1.993798    0.164856
  H     -0.323178    0.259772    1.096858
  O     -0.959643   -0.788183    1.700884
  H     -0.278652   -1.322254    2.133681

 Total Charge           Charge          ....    0
 Multiplicity           Mult            ....    1
 Number of Electrons    NEL             ....   50
 Basis Dimension        Dim             ....  134

ORBITAL ENERGIES
----------------

  NO   OCC          E(Eh)            E(eV)
   0   2.0000     -19.193545      -522.2829
   1   2.0000     -19.075226      -519.0633
   2   2.0000     -10.280781      -279.7543
   3   2.0000     -10.190206      -277.2896
   4   2.0000     -10.177206      -276.9359
   5   2.0000     -10.162958      -276.5482
   6   2.0000      -1.084760       -29.5178
   7   2.0000      -0.913490       -24.8573
   8   2.0000      -0.798119       -21.7179
   9   2.0000      -0.726778       -19.7766
  10   2.0000      -0.645840       -17.5742
  11   2.0000      -0.606752       -16.5106
  12   2.0000      -0.499361       -13.5883
  13   2.0000      -0.488818       -13.3014
  14   2.0000      -0.458736       -12.4828
  15   2.0000      -0.427931       -11.6446
  16   2.0000      -0.418394       -11.3851
  17   2.0000      -0.403346       -10.9756
  18   2.0000      -0.390402       -10.6234
  19   2.0000      -0.371380       -10.1058
  20   2.0000      -0.364836        -9.9277
  21   2.0000      -0.352199        -9.5838
  22   2.0000      -0.330297        -8.9878
  23   2.0000      -0.237735        -6.4691
  24   2.0000      -0.211095        -5.7442
  25   0.0000      -0.024320        -0.6618
  26   0.0000       0.036542         0.9944
  27   0.0000       0.061291         1.6678
  28   0.0000       0.089222         2.4279
  29   0.0000       0.114179         3.1070

MULLIKEN ATOMIC CHARGES
-----------------------
   0 C :    0.039895
   1 C :   -0.207165
   2 C :    0.049962
   3 C :   -0.125193
   4 O :   -0.139814
   5 H :    0.019526
   6 H :    0.000486
   7 H :    0.016584
   8 H :    0.029093
   9 H :    0.026062
  10 H :    0.192704
  11 H :    0.184124
  12 H :   -0.015952
  13 H :    0.206328
  14 O :   -0.416800
  15 H :    0.140159
Sum of atomic charges:   -0.0000000

LOEWDIN ATOMIC CHARGES
----------------------
   0 C :   -0.047229
   1 C :   -0.152225
   2 C :    0.132303
   3 C :   -0.155723
   4 O :    0.004288
   5 H :    0.022419
   6 H :    0.018590
   7 H :    0.029513
   8 H :    0.033364
   9 H :    0.027449
  10 H :    0.095209
  11 H :    0.100612
  12 H :    0.012134
  13 H :    0.089854
  14 O :   -0.256685
  15 H :    0.046126

  Mayer bond orders larger than 0.100000
B(  0-C ,  1-C ) :   1.0749 B(  0-C ,  5-H ) :   0.9720 B(  0-C ,  6-H ) :   0.9563
B(  0-C ,  7-H ) :   0.9610 B(  1-C ,  2-C ) :   1.2295 B(  1-C , 12-H ) :   0.9174
B(  1-C , 13-H ) :   0.4855 B(  2-C ,  3-C ) :   1.3039 B(  2-C ,  4-O ) :   1.2915
B(  3-C ,  8-H ) :   0.9286 B(  3-C ,  9-H ) :   0.9379 B(  3-C , 10-H ) :   0.4998
B(  4-O , 11-H ) :   0.9534 B( 10-H , 14-O ) :   0.4813 B( 13-H , 14-O ) :   0.4873
B( 14-O , 15-H ) :   0.9926

Dispersion correction           -0.020519347
FINAL SINGLE POINT ENERGY      -308.406643328937
Dispersion correction             ... done (  0.1 sec)

DIPOLE MOMENT
-------------

Method             : SCF
Type of density    : Electron Density
Multiplicity       :   1
Irrep              :   0
Energy             :  -308.3861239821845288 Eh
Basis              : AO
                                X                 Y                 Z
Electronic contribution:     -4.429809597       2.249332640      -2.389842427
Nuclear contribution   :      5.153740840      -1.642005408       1.950477759
                        -----------------------------------------
Total Dipole Moment    :      0.723931243       0.607327232      -0.439364668
                        -----------------------------------------
Magnitude (a.u.)       :      1.042096024
Magnitude (Debye)      :      2.648797590

Rotational constants in cm-1:             0.114200             0.091270             0.068958
Rotational constants in MHz :          3423.636380          2736.203371          2067.311228

                             ****ORCA TERMINATED NORMALLY****
TOTAL RUN TIME: 0 days 0 hours 0 minutes 18 seconds 222 msec
