                         Program Version 6.1.0  -  RELEASE   -
|  1> ! B3LYP def2-SVP d3 EnGrad
|  2> %pal nprocs 6 end
|  3> *xyz 0 1
|  4> C   -0.89257396815325 -1.7357529530106 0.08469262230579
|  5> C   -0.6659716005118 -0.24386209431361 -0.09285911932551
|  6> H   -1.96838433568612 -1.9349957665797 0.01118405820874
|  7> H   -0.54774262702921 -2.05973518153283 1.07537254727352
|  8> H   -0.37013209073335 -2.30040347542006 -0.69887810142766
|  9> O   -1.32949943553201 0.50648673260283 0.9344121417627
| 10> O   -2.73966354851078 0.22981406653503 0.88762929152895
| 11> H   -2.94635490561114 0.49243216830797 -0.03020874797542
| 12> O   -1.24611024699424 0.10230814481705 -1.34060044295569
| 13> C   0.77917768435891 0.2495230646507 -0.00230560782856
| 14> C   1.78776087667835 -0.593459466741 0.27327656077145
| 15> C   3.24928063080962 -0.28010389895346 0.37927482123439
| 16> H   1.54227641972767 -1.64525171317381 0.4446020038763
| 17> H   3.48454298338105 0.78255404320059 0.23180409493174
| 18> H   3.8236285745854 -0.8597888873327 -0.36487469678961
| 19> H   3.63772108171788 -0.57923901905875 1.3685155231161
| 20> C   0.95239754347927 1.72952255597692 -0.24724893742867
| 21> H   -0.92294482138694 0.97906637749467 -1.59022497694766
| 22> H   1.97646251095755 2.06653973537139 -0.04542256203874
| 23> H   0.26400385206647 2.30635758562697 0.38850354860726
| 24> H   0.73997942238672 2.00218198153243 -1.29865102089939
| 25> *
| 26>
| 27>                          ****END OF INPUT****

CARTESIAN COORDINATES (ANGSTROEM)
---------------------------------
  C     -0.892574   -1.735753    0.084693
  C     -0.665972   -0.243862   -0.092859
  H     -1.968384   -1.934996    0.011184
  H     -0.547743   -2.059735    1.075373
  H     -0.370132   -2.300403   -0.698878
  O     -1.329499    0.506487    0.934412
  O     -2.739664    0.229814    0.887629
  H     -2.946355    0.492432   -0.030209
  O     -1.246110    0.102308   -1.340600
  C      0.779178    0.249523   -0.002306
  C      1.787761   -0.593459    0.273277
  C      3.249281   -0.280104    0.379275
  H      1.542276   -1.645252    0.444602
  H      3.484543    0.782554    0.231804
  H      3.823629   -0.859789   -0.364875
  H      3.637721   -0.579239    1.368516
  C      0.952398    1.729523   -0.247249
  H     -0.922945    0.979066   -1.590225
  H      1.976463    2.066540   -0.045423
  H      0.264004    2.306358    0.388504
  H      0.739979    2.002182   -1.298651

 Total Charge           Charge          ....    0
 Multiplicity           Mult            ....    1
 Number of Electrons    NEL             ....   72
 Basis Dimension        Dim             ....  186

ORBITAL ENERGIES
----------------

  NO   OCC          E(Eh)            E(eV)
   0   2.0000     -19.175469      -521.7910
   1   2.0000     -19.169129      -521.6185
   2   2.0000     -19.147159      -521.0207
   3   2.0000     -10.288250      -279.9575
   4   2.0000     -10.196076      -277.4493
   5   2.0000     -10.193085      -277.3679
   6   2.0000     -10.192810      -277.3605
   7   2.0000     -10.191314      -277.3198
   8   2.0000     -10.174592      -276.8647
   9   2.0000      -1.109475       -30.1903
  10   2.0000      -1.021646       -27.8004
  11   2.0000      -0.883842       -24.0506
  12   2.0000      -0.803237       -21.8572
  13   2.0000      -0.733619       -19.9628
  14   2.0000      -0.725977       -19.7548
  15   2.0000      -0.656626       -17.8677
  16   2.0000      -0.610659       -16.6169
  17   2.0000      -0.555157       -15.1066
  18   2.0000      -0.531536       -14.4638
  19   2.0000      -0.502797       -13.6818
  20   2.0000      -0.471788       -12.8380
  21   2.0000      -0.444662       -12.0999
  22   2.0000      -0.435409       -11.8481
  23   2.0000      -0.417448       -11.3593
  24   2.0000      -0.413041       -11.2394
  25   2.0000      -0.405324       -11.0294
  26   2.0000      -0.393923       -10.7192
  27   2.0000      -0.391303       -10.6479
  28   2.0000      -0.385172       -10.4811
  29   2.0000      -0.370751       -10.0886
  30   2.0000      -0.358346        -9.7511
  31   2.0000      -0.332095        -9.0368
  32   2.0000      -0.323332        -8.7983
  33   2.0000      -0.295076        -8.0294
  34   2.0000      -0.260256        -7.0819
  35   2.0000      -0.248415        -6.7597
  36   0.0000      -0.003514        -0.0956
  37   0.0000       0.040068         1.0903
  38   0.0000       0.054526         1.4837
  39   0.0000       0.075976         2.0674
  40   0.0000       0.082262         2.2385

MULLIKEN ATOMIC CHARGES
-----------------------
   0 C :    0.127486
   1 C :    0.119001
   2 H :    0.012618
   3 H :    0.019519
   4 H :    0.014370
   5 O :   -0.243784
   6 O :   -0.146713
   7 H :    0.173742
   8 O :   -0.276662
   9 C :   -0.093101
  10 C :   -0.120904
  11 C :    0.081274
  12 H :   -0.007669
  13 H :    0.007160
  14 H :    0.023458
  15 H :    0.024828
  16 C :    0.069379
  17 H :    0.160078
  18 H :    0.007957
  19 H :    0.041845
  20 H :    0.006117
Sum of atomic charges:   -0.0000000

LOEWDIN ATOMIC CHARGES
----------------------
   0 C :   -0.056052
   1 C :    0.085767
   2 H :    0.030387
   3 H :    0.031719
   4 H :    0.029068
   5 O :   -0.096465
   6 O :   -0.057694
   7 H :    0.055522
   8 O :   -0.112698
   9 C :   -0.058929
  10 C :   -0.025892
  11 C :   -0.053534
  12 H :    0.025578
  13 H :    0.024454
  14 H :    0.036087
  15 H :    0.036688
  16 C :   -0.053112
  17 H :    0.068653
  18 H :    0.029817
  19 H :    0.036897
  20 H :    0.023737

  Mayer bond orders larger than 0.100000
B(  0-C ,  1-C ) :   1.1002 B(  0-C ,  2-H ) :   0.9291 B(  0-C ,  3-H ) :   0.9389
B(  0-C ,  4-H ) :   0.9435 B(  1-C ,  5-O ) :   0.9634 B(  1-C ,  8-O ) :   1.0617
B(  1-C ,  9-C ) :   0.9377 B(  5-O ,  6-O ) :   0.9381 B(  6-O ,  7-H ) :   0.9530
B(  8-O , 17-H ) :   0.9636 B(  9-C , 10-C ) :   1.9497 B(  9-C , 16-C ) :   1.0675
B( 10-C , 11-C ) :   1.0809 B( 10-C , 12-H ) :   0.9272 B( 11-C , 13-H ) :   0.9608
B( 11-C , 14-H ) :   0.9455 B( 11-C , 15-H ) :   0.9461 B( 16-C , 18-H ) :   0.9453
B( 16-C , 19-H ) :   0.9459 B( 16-C , 20-H ) :   0.9381

Dispersion correction           -0.031335396
FINAL SINGLE POINT ENERGY      -460.847315702870
Dispersion correction             ... done (  0.0 sec)

DIPOLE MOMENT
-------------

Method             : SCF
Type of density    : Electron Density
Multiplicity       :   1
Irrep              :   0
Energy             :  -460.8159803063996378 Eh
Basis              : AO
                                X                 Y                 Z
Electronic contribution:     -8.428901561       1.077661106       0.800407243
Nuclear contribution   :      9.265553914      -0.876342504      -1.490227458
                        -----------------------------------------
Total Dipole Moment    :      0.836652353       0.201318602      -0.689820214
                        -----------------------------------------
Magnitude (a.u.)       :      1.102890868
Magnitude (Debye)      :      2.803325803

Rotational constants in cm-1:             0.092355             0.033944             0.030715
Rotational constants in MHz :          2768.721800          1017.622428           920.808781

                             ****ORCA TERMINATED NORMALLY****
TOTAL RUN TIME: 0 days 0 hours 0 minutes 32 seconds 918 msec
