                         Program Version 6.1.0  -  RELEASE   -
|  1> ! B3LYP def2-SVP d3 EnGrad
|  2> %pal nprocs 6 end
|  3> *xyz 0 1
|  4> C   -1.13239063125868 0.66840504336711 2.4744138e-07
|  5> H   -1.13401781897039 1.24305245891866 0.93189144774455
|  6> H   -1.13401747814901 1.24305225393014 -0.93189096566432
|  7> C   -1.13239288849846 -0.66840488752909 3.6619639e-07
|  8> H   -1.13402099504342 -1.24305247181735 -0.93189080982344
|  9> H   -1.13402074469925 -1.24305277057012 0.93189129810283
| 10> F   1.8714964110567 1.24921764e-06 -2.44498685e-06
| 11> H   0.93851814556251 1.24483e-07 -1.3901055e-07
| 12> *
| 13>
| 14>                          ****END OF INPUT****

CARTESIAN COORDINATES (ANGSTROEM)
---------------------------------
  C     -1.132391    0.668405    0.000000
  H     -1.134018    1.243052    0.931891
  H     -1.134017    1.243052   -0.931891
  C     -1.132393   -0.668405    0.000000
  H     -1.134021   -1.243052   -0.931891
  H     -1.134021   -1.243053    0.931891
  F      1.871496    0.000001   -0.000002
  H      0.938518    0.000000   -0.000000

 Total Charge           Charge          ....    0
 Multiplicity           Mult            ....    1
 Number of Electrons    NEL             ....   26
 Basis Dimension        Dim             ....   67

ORBITAL ENERGIES
----------------

  NO   OCC          E(Eh)            E(eV)
   0   2.0000     -24.621064      -669.9732
   1   2.0000     -10.216209      -277.9972
   2   2.0000     -10.215470      -277.9771
   3   2.0000      -1.118705       -30.4415
   4   2.0000      -0.779761       -21.2184
   5   2.0000      -0.595284       -16.1985
   6   2.0000      -0.493679       -13.4337
   7   2.0000      -0.490362       -13.3434
   8   2.0000      -0.445160       -12.1134
   9   2.0000      -0.377215       -10.2645
  10   2.0000      -0.355710        -9.6793
  11   2.0000      -0.354942        -9.6585
  12   2.0000      -0.305323        -8.3083
  13   0.0000      -0.023848        -0.6489
  14   0.0000       0.063282         1.7220
  15   0.0000       0.086955         2.3662
  16   0.0000       0.100132         2.7247
  17   0.0000       0.134943         3.6720

MULLIKEN ATOMIC CHARGES
-----------------------
   0 C :   -0.085469
   1 H :    0.053252
   2 H :    0.053252
   3 C :   -0.085469
   4 H :    0.053251
   5 H :    0.053251
   6 F :   -0.259878
   7 H :    0.217810
Sum of atomic charges:    0.0000000

LOEWDIN ATOMIC CHARGES
----------------------
   0 C :   -0.035904
   1 H :    0.033624
   2 H :    0.033624
   3 C :   -0.035904
   4 H :    0.033624
   5 H :    0.033624
   6 F :   -0.120392
   7 H :    0.057704

  Mayer bond orders larger than 0.100000
B(  0-C ,  1-H ) :   0.9632 B(  0-C ,  2-H ) :   0.9632 B(  0-C ,  3-C ) :   1.9956
B(  3-C ,  4-H ) :   0.9632 B(  3-C ,  5-H ) :   0.9632 B(  6-F ,  7-H ) :   0.9650

Dispersion correction           -0.005965726
FINAL SINGLE POINT ENERGY      -178.803481259390
Dispersion correction             ... done (  0.0 sec)

DIPOLE MOMENT
-------------

Method             : SCF
Type of density    : Electron Density
Multiplicity       :   1
Irrep              :   0
Energy             :  -178.7975155329288270 Eh
Basis              : AO
                                X                 Y                 Z
Electronic contribution:      4.458846293       0.000002581      -0.000004288
Nuclear contribution   :     -5.479321007      -0.000003511       0.000006041
                        -----------------------------------------
Total Dipole Moment    :     -1.020474714      -0.000000929       0.000001752
                        -----------------------------------------
Magnitude (a.u.)       :      1.020474714
Magnitude (Debye)      :      2.593840587

Rotational constants in cm-1:             0.823777             0.158356             0.140580
Rotational constants in MHz :         24696.208551          4747.398206          4214.484966

                             ****ORCA TERMINATED NORMALLY****
TOTAL RUN TIME: 0 days 0 hours 0 minutes 6 seconds 861 msec
