                         Program Version 6.1.0  -  RELEASE   -
|  1> ! B3LYP def2-SVP d3 EnGrad
|  2> %pal nprocs 6 end
|  3> *xyz 0 1
|  4> Si   -4.19097121e-06 9.713905244e-05 4.389212242e-05
|  5> H   0.64703101515441 -1.34185739029516 -0.06513164005174
|  6> H   1.0509026338081 1.05612188007925 0.06312837726755
|  7> H   -0.83959336989596 0.206315022508 -1.21493422008985
|  8> H   -0.85833607809533 0.07932334865547 1.21689359075162
|  9> *
| 10>
| 11>                          ****END OF INPUT****

CARTESIAN COORDINATES (ANGSTROEM)
---------------------------------
  Si    -0.000004    0.000097    0.000044
  H      0.647031   -1.341857   -0.065132
  H      1.050903    1.056122    0.063128
  H     -0.839593    0.206315   -1.214934
  H     -0.858336    0.079323    1.216894

 Total Charge           Charge          ....    0
 Multiplicity           Mult            ....    1
 Number of Electrons    NEL             ....   18
 Basis Dimension        Dim             ....   38

ORBITAL ENERGIES
----------------

  NO   OCC          E(Eh)            E(eV)
   0   2.0000     -66.109500     -1798.9309
   1   2.0000      -5.281315      -143.7119
   2   2.0000      -3.642750       -99.1243
   3   2.0000      -3.642745       -99.1241
   4   2.0000      -3.642743       -99.1241
   5   2.0000      -0.543530       -14.7902
   6   2.0000      -0.349705        -9.5159
   7   2.0000      -0.349680        -9.5153
   8   2.0000      -0.349655        -9.5146
   9   0.0000       0.050778         1.3817
  10   0.0000       0.050803         1.3824
  11   0.0000       0.050813         1.3827
  12   0.0000       0.089010         2.4221
  13   0.0000       0.238392         6.4870

MULLIKEN ATOMIC CHARGES
-----------------------
   0 Si:    0.335876
   1 H :   -0.084045
   2 H :   -0.083802
   3 H :   -0.084031
   4 H :   -0.083998
Sum of atomic charges:    0.0000000

LOEWDIN ATOMIC CHARGES
----------------------
   0 Si:    0.369059
   1 H :   -0.092290
   2 H :   -0.092210
   3 H :   -0.092289
   4 H :   -0.092269

  Mayer bond orders larger than 0.100000
B(  0-Si,  1-H ) :   0.9558 B(  0-Si,  2-H ) :   0.9557 B(  0-Si,  3-H ) :   0.9557
B(  0-Si,  4-H ) :   0.9557

Dispersion correction           -0.003164236
FINAL SINGLE POINT ENERGY      -291.746636820002
Dispersion correction             ... done (  0.1 sec)

DIPOLE MOMENT
-------------

Method             : SCF
Type of density    : Electron Density
Multiplicity       :   1
Irrep              :   0
Energy             :  -291.7434725841517889 Eh
Basis              : AO
                                X                 Y                 Z
Electronic contribution:      0.000069717       0.000631280       0.000339653
Nuclear contribution   :      0.000017237      -0.000399333      -0.000180438
                        -----------------------------------------
Total Dipole Moment    :      0.000086954       0.000231947       0.000159216
                        -----------------------------------------
Magnitude (a.u.)       :      0.000294466
Magnitude (Debye)      :      0.000748473

Rotational constants in cm-1:             2.820536             2.820341             2.820075
Rotational constants in MHz :         84557.555038         84551.686019         84543.712756

                             ****ORCA TERMINATED NORMALLY****
TOTAL RUN TIME: 0 days 0 hours 0 minutes 4 seconds 702 msec
