                         Program Version 6.1.0  -  RELEASE   -
|  1> ! B3LYP def2-SVP d3 EnGrad
|  2> %pal nprocs 6 end
|  3> *xyz 0 1
|  4> C   -1.67069012396522 1.59189903586025 -0.16813696050109
|  5> C   -0.41929467737492 0.82898445649473 0.28641154519866
|  6> C   -0.38710163113008 -0.59495855807772 -0.20456099727587
|  7> C   0.45704481162041 -1.05737521550125 -1.14331113996752
|  8> O   -1.32060029881615 -1.43171047671038 0.32940732223384
|  9> H   -2.59797934144984 1.09855369455091 0.16818394521767
| 10> H   -1.71036864685148 1.65340423165616 -1.26690701972626
| 11> H   -1.67316543562713 2.61615210793964 0.23552350349198
| 12> H   1.16863221926368 -0.38048698348597 -1.61490312765076
| 13> H   0.4085541732481 -2.09652078638921 -1.47494116268474
| 14> H   2.23456297867122 -0.30655751974696 0.32037907666938
| 15> H   -1.77681241152873 -0.98324356598822 1.05286928726235
| 16> H   -0.3724188125797 0.81342991714634 1.3929549249029
| 17> H   0.49953095801259 1.33656427423591 -0.03630034187071
| 18> O   2.76604539040132 0.48519653900527 0.50291776993304
| 19> H   3.42874084810594 0.46951684901049 -0.20097962523291
| 20> *
| 21>
| 22>                          ****END OF INPUT****

CARTESIAN COORDINATES (ANGSTROEM)
---------------------------------
  C     -1.670690    1.591899   -0.168137
  C     -0.419295    0.828984    0.286412
  C     -0.387102   -0.594959   -0.204561
  C      0.457045   -1.057375   -1.143311
  O     -1.320600   -1.431710    0.329407
  H     -2.597979    1.098554    0.168184
  H     -1.710369    1.653404   -1.266907
  H     -1.673165    2.616152    0.235524
  H      1.168632   -0.380487   -1.614903
  H      0.408554   -2.096521   -1.474941
  H      2.234563   -0.306558    0.320379
  H     -1.776812   -0.983244    1.052869
  H     -0.372419    0.813430    1.392955
  H      0.499531    1.336564   -0.036300
  O      2.766045    0.485197    0.502918
  H      3.428741    0.469517   -0.200980

 Total Charge           Charge          ....    0
 Multiplicity           Mult            ....    1
 Number of Electrons    NEL             ....   50
 Basis Dimension        Dim             ....  134

ORBITAL ENERGIES
----------------

  NO   OCC          E(Eh)            E(eV)
   0   2.0000     -19.159725      -521.3626
   1   2.0000     -19.115097      -520.1482
   2   2.0000     -10.244065      -278.7552
   3   2.0000     -10.192286      -277.3462
   4   2.0000     -10.188351      -277.2391
   5   2.0000     -10.164366      -276.5865
   6   2.0000      -1.046210       -28.4688
   7   2.0000      -0.973479       -26.4897
   8   2.0000      -0.784306       -21.3420
   9   2.0000      -0.725410       -19.7394
  10   2.0000      -0.629451       -17.1282
  11   2.0000      -0.579446       -15.7675
  12   2.0000      -0.505165       -13.7462
  13   2.0000      -0.496640       -13.5143
  14   2.0000      -0.466194       -12.6858
  15   2.0000      -0.437242       -11.8980
  16   2.0000      -0.414590       -11.2816
  17   2.0000      -0.398727       -10.8499
  18   2.0000      -0.387174       -10.5355
  19   2.0000      -0.369250       -10.0478
  20   2.0000      -0.357813        -9.7366
  21   2.0000      -0.345277        -9.3955
  22   2.0000      -0.335169        -9.1204
  23   2.0000      -0.287152        -7.8138
  24   2.0000      -0.228027        -6.2049
  25   0.0000       0.021208         0.5771
  26   0.0000       0.040434         1.1003
  27   0.0000       0.061717         1.6794
  28   0.0000       0.093986         2.5575
  29   0.0000       0.107040         2.9127

MULLIKEN ATOMIC CHARGES
-----------------------
   0 C :    0.012073
   1 C :    0.030661
   2 C :    0.002264
   3 C :   -0.102835
   4 O :   -0.199553
   5 H :   -0.002460
   6 H :    0.020952
   7 H :    0.021631
   8 H :   -0.001275
   9 H :    0.016424
  10 H :    0.147033
  11 H :    0.170297
  12 H :    0.008486
  13 H :    0.012107
  14 O :   -0.284909
  15 H :    0.149105
Sum of atomic charges:    0.0000000

LOEWDIN ATOMIC CHARGES
----------------------
   0 C :   -0.050611
   1 C :   -0.050282
   2 C :    0.050618
   3 C :   -0.151948
   4 O :   -0.053813
   5 H :    0.015016
   6 H :    0.027751
   7 H :    0.027367
   8 H :    0.017697
   9 H :    0.024875
  10 H :    0.061522
  11 H :    0.086343
  12 H :    0.027291
  13 H :    0.031386
  14 O :   -0.138604
  15 H :    0.075393

  Mayer bond orders larger than 0.100000
B(  0-C ,  1-C ) :   1.0873 B(  0-C ,  5-H ) :   0.9656 B(  0-C ,  6-H ) :   0.9693
B(  0-C ,  7-H ) :   0.9670 B(  1-C ,  2-C ) :   1.0295 B(  1-C , 12-H ) :   0.9212
B(  1-C , 13-H ) :   0.9127 B(  2-C ,  3-C ) :   1.8786 B(  2-C ,  4-O ) :   1.1813
B(  3-C ,  8-H ) :   0.9376 B(  3-C ,  9-H ) :   0.9387 B(  4-O , 11-H ) :   0.9662
B( 10-H , 14-O ) :   0.9757 B( 14-O , 15-H ) :   1.0038

Dispersion correction           -0.018812657
FINAL SINGLE POINT ENERGY      -308.475798574110
Dispersion correction             ... done (  0.0 sec)

DIPOLE MOMENT
-------------

Method             : SCF
Type of density    : Electron Density
Multiplicity       :   1
Irrep              :   0
Energy             :  -308.4569859173094528 Eh
Basis              : AO
                                X                 Y                 Z
Electronic contribution:     -0.047609471      -3.898438037       0.968830758
Nuclear contribution   :     -0.185320916       4.118974495      -1.022192742
                        -----------------------------------------
Total Dipole Moment    :     -0.232930387       0.220536457      -0.053361984
                        -----------------------------------------
Magnitude (a.u.)       :      0.325177483
Magnitude (Debye)      :      0.826535476

Rotational constants in cm-1:             0.116653             0.065962             0.049628
Rotational constants in MHz :          3497.168005          1977.497736          1487.824358

                             ****ORCA TERMINATED NORMALLY****
TOTAL RUN TIME: 0 days 0 hours 0 minutes 16 seconds 707 msec
