                         Program Version 6.1.0  -  RELEASE   -
|  1> ! B3LYP def2-SVP d3 EnGrad
|  2> %pal nprocs 6 end
|  3> *xyz 0 1
|  4> C   3.37054730223711 -1.12881554157768 -0.06225701111021
|  5> C   2.32653037356054 -0.05989041428754 0.21294286249299
|  6> N   1.05732297546693 -0.36907527137727 -0.1673527525626
|  7> C   -0.05199305490614 0.52187521303106 0.0769914739785
|  8> C   -1.33388408124984 -0.31729579748195 -0.0226463651543
|  9> N   -2.45681741303624 0.29623061434855 0.43402385344858
| 10> C   -3.76905087698623 -0.31288423141645 0.3712438117878
| 11> O   2.60874407328419 1.00590935399148 0.74186807731363
| 12> C   -0.08028854762134 1.70300079410045 -0.90772039441185
| 13> O   -1.32584571637257 -1.44002896483376 -0.50776531982904
| 14> H   4.17811668374077 -0.68515611113778 -0.66385671956972
| 15> H   2.97199314504057 -2.01235445571398 -0.58189257771492
| 16> H   3.81494358345699 -1.4408822517992 0.89556215258261
| 17> H   0.80400219884344 -1.27600339468693 -0.55074938882616
| 18> H   0.04354531440343 0.92896532531693 1.09984575744361
| 19> H   -2.36567708590855 1.21722992199868 0.84488529408033
| 20> H   -4.46602273549308 0.29101011009765 -0.23407692905224
| 21> H   -4.20104349048655 -0.44526058457588 1.37747502816457
| 22> H   -3.65486815892793 -1.29912502638567 -0.09698440341531
| 23> H   -0.90553551150862 2.39746999151735 -0.68436823415702
| 24> H   -0.20086269406476 1.33686584379873 -1.93908842429906
| 25> H   0.86749373652784 2.25316689707326 -0.82677479119016
| 26> *
| 27>
| 28>                          ****END OF INPUT****

CARTESIAN COORDINATES (ANGSTROEM)
---------------------------------
  C      3.370547   -1.128816   -0.062257
  C      2.326530   -0.059890    0.212943
  N      1.057323   -0.369075   -0.167353
  C     -0.051993    0.521875    0.076991
  C     -1.333884   -0.317296   -0.022646
  N     -2.456817    0.296231    0.434024
  C     -3.769051   -0.312884    0.371244
  O      2.608744    1.005909    0.741868
  C     -0.080289    1.703001   -0.907720
  O     -1.325846   -1.440029   -0.507765
  H      4.178117   -0.685156   -0.663857
  H      2.971993   -2.012354   -0.581893
  H      3.814944   -1.440882    0.895562
  H      0.804002   -1.276003   -0.550749
  H      0.043545    0.928965    1.099846
  H     -2.365677    1.217230    0.844885
  H     -4.466023    0.291010   -0.234077
  H     -4.201043   -0.445261    1.377475
  H     -3.654868   -1.299125   -0.096984
  H     -0.905536    2.397470   -0.684368
  H     -0.200863    1.336866   -1.939088
  H      0.867494    2.253167   -0.826775

 Total Charge           Charge          ....    0
 Multiplicity           Mult            ....    1
 Number of Electrons    NEL             ....   78
 Basis Dimension        Dim             ....  200

ORBITAL ENERGIES
----------------

  NO   OCC          E(Eh)            E(eV)
   0   2.0000     -19.109091      -519.9848
   1   2.0000     -19.081567      -519.2358
   2   2.0000     -14.363702      -390.8562
   3   2.0000     -14.337993      -390.1566
   4   2.0000     -10.290940      -280.0307
   5   2.0000     -10.272700      -279.5344
   6   2.0000     -10.232337      -278.4360
   7   2.0000     -10.228285      -278.3258
   8   2.0000     -10.186585      -277.1911
   9   2.0000     -10.184981      -277.1474
  10   2.0000      -1.036709       -28.2103
  11   2.0000      -1.009593       -27.4724
  12   2.0000      -0.923013       -25.1165
  13   2.0000      -0.904922       -24.6242
  14   2.0000      -0.772694       -21.0261
  15   2.0000      -0.718983       -19.5645
  16   2.0000      -0.702198       -19.1078
  17   2.0000      -0.641092       -17.4450
  18   2.0000      -0.594342       -16.1729
  19   2.0000      -0.568920       -15.4811
  20   2.0000      -0.535888       -14.5822
  21   2.0000      -0.482421       -13.1273
  22   2.0000      -0.472714       -12.8632
  23   2.0000      -0.461048       -12.5457
  24   2.0000      -0.453019       -12.3273
  25   2.0000      -0.443135       -12.0583
  26   2.0000      -0.428415       -11.6578
  27   2.0000      -0.414338       -11.2747
  28   2.0000      -0.403174       -10.9709
  29   2.0000      -0.397766       -10.8238
  30   2.0000      -0.387249       -10.5376
  31   2.0000      -0.381845       -10.3905
  32   2.0000      -0.372791       -10.1441
  33   2.0000      -0.366377        -9.9696
  34   2.0000      -0.339898        -9.2491
  35   2.0000      -0.268790        -7.3142
  36   2.0000      -0.268249        -7.2994
  37   2.0000      -0.246583        -6.7099
  38   2.0000      -0.240660        -6.5487
  39   0.0000       0.015203         0.4137
  40   0.0000       0.033768         0.9189
  41   0.0000       0.042062         1.1446
  42   0.0000       0.068778         1.8715
  43   0.0000       0.078698         2.1415

MULLIKEN ATOMIC CHARGES
-----------------------
   0 C :    0.051803
   1 C :    0.040042
   2 N :   -0.158578
   3 C :    0.044406
   4 C :    0.083539
   5 N :   -0.173022
   6 C :    0.105118
   7 O :   -0.283593
   8 C :    0.059916
   9 O :   -0.271642
  10 H :    0.038510
  11 H :    0.003376
  12 H :    0.039498
  13 H :    0.127447
  14 H :    0.018345
  15 H :    0.121360
  16 H :    0.026031
  17 H :    0.027301
  18 H :    0.051693
  19 H :   -0.007014
  20 H :    0.009407
  21 H :    0.046057
Sum of atomic charges:   -0.0000000

LOEWDIN ATOMIC CHARGES
----------------------
   0 C :   -0.075276
   1 C :    0.062406
   2 N :   -0.010786
   3 C :    0.005906
   4 C :    0.069331
   5 N :   -0.016462
   6 C :    0.028151
   7 O :   -0.241645
   8 C :   -0.047157
   9 O :   -0.225023
  10 H :    0.044447
  11 H :    0.023374
  12 H :    0.045279
  13 H :    0.071068
  14 H :    0.028511
  15 H :    0.077802
  16 H :    0.022144
  17 H :    0.022439
  18 H :    0.037530
  19 H :    0.016835
  20 H :    0.025259
  21 H :    0.035867

  Mayer bond orders larger than 0.100000
B(  0-C ,  1-C ) :   1.0323 B(  0-C , 10-H ) :   0.9507 B(  0-C , 11-H ) :   0.9550
B(  0-C , 12-H ) :   0.9488 B(  1-C ,  2-N ) :   1.2083 B(  1-C ,  7-O ) :   1.9998
B(  2-N ,  3-C ) :   0.9982 B(  2-N , 13-H ) :   0.8934 B(  3-C ,  4-C ) :   0.9128
B(  3-C ,  8-C ) :   1.0749 B(  3-C , 14-H ) :   0.9099 B(  4-C ,  5-N ) :   1.2586
B(  4-C ,  9-O ) :   2.0080 B(  5-N ,  6-C ) :   0.9861 B(  5-N , 15-H ) :   0.9263
B(  6-C , 16-H ) :   0.9747 B(  6-C , 17-H ) :   0.9759 B(  6-C , 18-H ) :   0.9606
B(  8-C , 19-H ) :   0.9587 B(  8-C , 20-H ) :   0.9535 B(  8-C , 21-H ) :   0.9590

Dispersion correction           -0.032669172
FINAL SINGLE POINT ENERGY      -495.241417400564
Dispersion correction             ... done (  0.0 sec)

DIPOLE MOMENT
-------------

Method             : SCF
Type of density    : Electron Density
Multiplicity       :   1
Irrep              :   0
Energy             :  -495.2087482286105455 Eh
Basis              : AO
                                X                 Y                 Z
Electronic contribution:      1.958056235      -1.206473719       1.448633475
Nuclear contribution   :     -3.171177515       1.322955431      -1.437840104
                        -----------------------------------------
Total Dipole Moment    :     -1.213121280       0.116481712       0.010793371
                        -----------------------------------------
Magnitude (a.u.)       :      1.218748426
Magnitude (Debye)      :      3.097812313

Rotational constants in cm-1:             0.097862             0.021887             0.019488
Rotational constants in MHz :          2933.815582           656.161393           584.241506

                             ****ORCA TERMINATED NORMALLY****
TOTAL RUN TIME: 0 days 0 hours 0 minutes 34 seconds 508 msec
