                         Program Version 6.1.0  -  RELEASE   -
|  1> ! B3LYP def2-SVP d3 EnGrad
|  2> %pal nprocs 6 end
|  3> *xyz 0 1
|  4> C   1.55531693162154 0.41876467544588 0.00992971372211
|  5> C   0.13593300982448 0.83137970738795 -0.17807453443682
|  6> C   -0.8276067929292 -0.01287640181375 -0.9762125186244
|  7> C   -0.74496062055712 -1.52574886421983 -0.93146224575455
|  8> O   -1.63167874032276 0.55775673117864 -1.68175200162596
|  9> H   2.12870888682348 1.18203884648425 0.54884063736557
| 10> H   1.99945139302387 0.27993580000857 -0.9966431286496
| 11> H   1.66020808477504 -0.54212547797404 0.53337207924109
| 12> H   0.22475146605283 -1.90606775413946 -0.58159748029257
| 13> H   -0.96254071800431 -1.92369101837592 -1.93247530583689
| 14> H   -1.52334006231958 -1.88429001449256 -0.24095542509687
| 15> H   0.00340280706708 2.01839208637828 1.63410704365623
| 16> H   -0.05362540613131 1.88943938198566 -0.3508872243157
| 17> H   -0.5742906792848 1.09034302441469 1.73121519883885
| 18> O   -0.98555572175633 0.07533627489785 1.47130098645438
| 19> H   -0.40417383788291 -0.54858699716619 1.94129420535512
| 20> *
| 21>
| 22>                          ****END OF INPUT****

CARTESIAN COORDINATES (ANGSTROEM)
---------------------------------
  C      1.555317    0.418765    0.009930
  C      0.135933    0.831380   -0.178075
  C     -0.827607   -0.012876   -0.976213
  C     -0.744961   -1.525749   -0.931462
  O     -1.631679    0.557757   -1.681752
  H      2.128709    1.182039    0.548841
  H      1.999451    0.279936   -0.996643
  H      1.660208   -0.542125    0.533372
  H      0.224751   -1.906068   -0.581597
  H     -0.962541   -1.923691   -1.932475
  H     -1.523340   -1.884290   -0.240955
  H      0.003403    2.018392    1.634107
  H     -0.053625    1.889439   -0.350887
  H     -0.574291    1.090343    1.731215
  O     -0.985556    0.075336    1.471301
  H     -0.404174   -0.548587    1.941294

 Total Charge           Charge          ....    0
 Multiplicity           Mult            ....    1
 Number of Electrons    NEL             ....   50
 Basis Dimension        Dim             ....  134

ORBITAL ENERGIES
----------------

  NO   OCC          E(Eh)            E(eV)
   0   2.0000     -19.143469      -520.9203
   1   2.0000     -19.134125      -520.6660
   2   2.0000     -10.288319      -279.9594
   3   2.0000     -10.280223      -279.7391
   4   2.0000     -10.221831      -278.1502
   5   2.0000     -10.200265      -277.5633
   6   2.0000      -1.042876       -28.3781
   7   2.0000      -0.979704       -26.6591
   8   2.0000      -0.806449       -21.9446
   9   2.0000      -0.738844       -20.1050
  10   2.0000      -0.663510       -18.0550
  11   2.0000      -0.547252       -14.8915
  12   2.0000      -0.512054       -13.9337
  13   2.0000      -0.484808       -13.1923
  14   2.0000      -0.469745       -12.7824
  15   2.0000      -0.464589       -12.6421
  16   2.0000      -0.443486       -12.0679
  17   2.0000      -0.421555       -11.4711
  18   2.0000      -0.406243       -11.0544
  19   2.0000      -0.398943       -10.8558
  20   2.0000      -0.385775       -10.4975
  21   2.0000      -0.369780       -10.0622
  22   2.0000      -0.329050        -8.9539
  23   2.0000      -0.263908        -7.1813
  24   2.0000      -0.211816        -5.7638
  25   0.0000      -0.111475        -3.0334
  26   0.0000      -0.000051        -0.0014
  27   0.0000       0.032710         0.8901
  28   0.0000       0.073738         2.0065
  29   0.0000       0.092987         2.5303

MULLIKEN ATOMIC CHARGES
-----------------------
   0 C :    0.059433
   1 C :   -0.018302
   2 C :    0.042557
   3 C :    0.041610
   4 O :   -0.185897
   5 H :    0.055268
   6 H :    0.048122
   7 H :    0.030958
   8 H :    0.003222
   9 H :    0.036437
  10 H :    0.058074
  11 H :   -0.330862
  12 H :    0.089640
  13 H :    0.188164
  14 O :   -0.262772
  15 H :    0.144348
Sum of atomic charges:    0.0000000

LOEWDIN ATOMIC CHARGES
----------------------
   0 C :   -0.052722
   1 C :    0.148172
   2 C :    0.063561
   3 C :   -0.078246
   4 O :   -0.127032
   5 H :    0.046485
   6 H :    0.053089
   7 H :    0.033183
   8 H :    0.024334
   9 H :    0.042463
  10 H :    0.054281
  11 H :   -0.215512
  12 H :    0.047125
  13 H :   -0.008796
  14 O :   -0.095005
  15 H :    0.064620

  Mayer bond orders larger than 0.100000
B(  0-C ,  1-C ) :   1.0953 B(  0-C ,  5-H ) :   0.9533 B(  0-C ,  6-H ) :   0.9287
B(  0-C ,  7-H ) :   0.9439 B(  1-C ,  2-C ) :   0.9426 B(  1-C , 11-H ) :   0.3405
B(  1-C , 12-H ) :   0.9405 B(  1-C , 14-O ) :   0.4284 B(  2-C ,  3-C ) :   1.0244
B(  2-C ,  4-O ) :   2.1237 B(  3-C ,  8-H ) :   0.9495 B(  3-C ,  9-H ) :   0.9450
B(  3-C , 10-H ) :   0.9403 B( 11-H , 13-H ) :   0.3862 B( 13-H , 14-O ) :   0.6136
B( 14-O , 15-H ) :   0.9834

Dispersion correction           -0.021770101
FINAL SINGLE POINT ENERGY      -308.324850382599
Dispersion correction             ... done (  0.0 sec)

DIPOLE MOMENT
-------------

Method             : SCF
Type of density    : Electron Density
Multiplicity       :   1
Irrep              :   0
Energy             :  -308.3030802812461388 Eh
Basis              : AO
                                X                 Y                 Z
Electronic contribution:     -4.899013429      -0.222765628      -4.945419399
Nuclear contribution   :      6.266270021      -0.973573609       4.856454316
                        -----------------------------------------
Total Dipole Moment    :      1.367256592      -1.196339237      -0.088965082
                        -----------------------------------------
Magnitude (a.u.)       :      1.818937312
Magnitude (Debye)      :      4.623371222

Rotational constants in cm-1:             0.123185             0.084913             0.077445
Rotational constants in MHz :          3693.007632          2545.627162          2321.729126

                             ****ORCA TERMINATED NORMALLY****
TOTAL RUN TIME: 0 days 0 hours 0 minutes 19 seconds 259 msec
