                         Program Version 6.1.0  -  RELEASE   -
|  1> ! B3LYP def2-SVP d3 EnGrad
|  2> %pal nprocs 6 end
|  3> *xyz 0 1
|  4> C   -1.53531293490441 -1.0049248545321 -0.11195025771459
|  5> C   1.6982368710891 -0.67683052613097 0.07175590437584
|  6> C   -1.27782121457499 0.43991258028847 0.1928745994702
|  7> C   1.22747580825595 0.55701013572284 -0.17722743358917
|  8> C   -0.09875343654269 1.09258647274447 0.14807082775708
|  9> H   -1.56930334250249 -1.61323476606853 0.81078720250439
| 10> H   -2.51235114928731 -1.13110952717419 -0.606345812964
| 11> H   2.71422430113634 -0.95751797756874 -0.21915206758051
| 12> H   -0.75427133068811 -1.4347897643481 -0.75733068459753
| 13> H   1.1085271024345 -1.43228806504154 0.59623780588649
| 14> H   -2.15906199137251 1.03528156150832 0.46050367924996
| 15> H   1.9097733908796 1.27533193550699 -0.65082471944931
| 16> H   -0.12261905392298 2.17197079509305 0.34101494665114
| 17> *
| 18>
| 19>                          ****END OF INPUT****

CARTESIAN COORDINATES (ANGSTROEM)
---------------------------------
  C     -1.535313   -1.004925   -0.111950
  C      1.698237   -0.676831    0.071756
  C     -1.277821    0.439913    0.192875
  C      1.227476    0.557010   -0.177227
  C     -0.098753    1.092586    0.148071
  H     -1.569303   -1.613235    0.810787
  H     -2.512351   -1.131110   -0.606346
  H      2.714224   -0.957518   -0.219152
  H     -0.754271   -1.434790   -0.757331
  H      1.108527   -1.432288    0.596238
  H     -2.159062    1.035282    0.460504
  H      1.909773    1.275332   -0.650825
  H     -0.122619    2.171971    0.341015

 Total Charge           Charge          ....    0
 Multiplicity           Mult            ....    1
 Number of Electrons    NEL             ....   38
 Basis Dimension        Dim             ....  110

ORBITAL ENERGIES
----------------

  NO   OCC          E(Eh)            E(eV)
   0   2.0000     -10.189295      -277.2648
   1   2.0000     -10.188146      -277.2335
   2   2.0000     -10.182213      -277.0721
   3   2.0000     -10.182184      -277.0713
   4   2.0000     -10.181760      -277.0598
   5   2.0000      -0.797084       -21.6898
   6   2.0000      -0.738727       -20.1018
   7   2.0000      -0.676429       -18.4066
   8   2.0000      -0.587334       -15.9822
   9   2.0000      -0.511351       -13.9146
  10   2.0000      -0.480018       -13.0619
  11   2.0000      -0.435072       -11.8389
  12   2.0000      -0.419631       -11.4187
  13   2.0000      -0.407521       -11.0892
  14   2.0000      -0.380938       -10.3659
  15   2.0000      -0.358529        -9.7561
  16   2.0000      -0.331251        -9.0138
  17   2.0000      -0.299332        -8.1452
  18   2.0000      -0.227727        -6.1968
  19   0.0000      -0.024698        -0.6721
  20   0.0000       0.060762         1.6534
  21   0.0000       0.074383         2.0241
  22   0.0000       0.082877         2.2552
  23   0.0000       0.102527         2.7899

MULLIKEN ATOMIC CHARGES
-----------------------
   0 C :    0.059646
   1 C :   -0.032222
   2 C :   -0.100515
   3 C :   -0.025440
   4 C :    0.003069
   5 H :    0.030382
   6 H :    0.012267
   7 H :    0.020296
   8 H :    0.025565
   9 H :    0.018676
  10 H :   -0.002679
  11 H :   -0.001064
  12 H :   -0.007981
Sum of atomic charges:    0.0000000

LOEWDIN ATOMIC CHARGES
----------------------
   0 C :   -0.060738
   1 C :   -0.051229
   2 C :   -0.022450
   3 C :   -0.031612
   4 C :   -0.054177
   5 H :    0.035436
   6 H :    0.029522
   7 H :    0.023805
   8 H :    0.031299
   9 H :    0.021183
  10 H :    0.024177
  11 H :    0.027598
  12 H :    0.027188

  Mayer bond orders larger than 0.100000
B(  0-C ,  2-C ) :   1.0886 B(  0-C ,  5-H ) :   0.9471 B(  0-C ,  6-H ) :   0.9524
B(  0-C ,  8-H ) :   0.9514 B(  1-C ,  3-C ) :   1.9410 B(  1-C ,  7-H ) :   0.9464
B(  1-C ,  9-H ) :   0.9556 B(  2-C ,  4-C ) :   1.8998 B(  2-C , 10-H ) :   0.9484
B(  3-C ,  4-C ) :   1.0857 B(  3-C , 11-H ) :   0.9513 B(  4-C , 12-H ) :   0.9451

Dispersion correction           -0.016425569
FINAL SINGLE POINT ENERGY      -195.042399241658
Dispersion correction             ... done (  0.0 sec)

DIPOLE MOMENT
-------------

Method             : SCF
Type of density    : Electron Density
Multiplicity       :   1
Irrep              :   0
Energy             :  -195.0259736726644633 Eh
Basis              : AO
                                X                 Y                 Z
Electronic contribution:      1.056745281       2.201605122       0.181106937
Nuclear contribution   :     -1.163916786      -2.265268557      -0.184237575
                        -----------------------------------------
Total Dipole Moment    :     -0.107171505      -0.063663435      -0.003130638
                        -----------------------------------------
Magnitude (a.u.)       :      0.124693886
Magnitude (Debye)      :      0.316946671

Rotational constants in cm-1:             0.292566             0.127916             0.092694
Rotational constants in MHz :          8770.897810          3834.815693          2778.898164

                             ****ORCA TERMINATED NORMALLY****
TOTAL RUN TIME: 0 days 0 hours 0 minutes 14 seconds 188 msec
