                         Program Version 6.1.0  -  RELEASE   -
|  1> ! B3LYP def2-SVP d3 EnGrad
|  2> %pal nprocs 6 end
|  3> *xyz 0 1
|  4> N   1.31231466833257 -0.9309540400763 0.27299080735739
|  5> B   1.63042449940847 0.66998381750214 0.11178362812819
|  6> B   -2.20911595301251 -0.42050562835692 -0.14827576511935
|  7> N   -1.69451624956238 0.84107746710194 -0.37970804982419
|  8> H   1.56691753687225 -1.26588542838352 1.20539900887265
|  9> H   1.83817839629714 -1.48570900113018 -0.40613107139579
| 10> H   0.31371721237444 -1.13541650021434 0.14071481153996
| 11> H   2.8178129015219 0.81329845846072 0.35851792469215
| 12> H   1.34156913468162 0.95126669357784 -1.04338284344923
| 13> H   0.90920898614709 1.22472415462454 0.93550264172419
| 14> H   -1.51043671494307 -1.26082955776606 0.38755587317758
| 15> H   -3.33649909654142 -0.70308401588847 -0.47363884225952
| 16> H   -2.23238434441351 1.57358730387539 -0.83055804717748
| 17> H   -0.74719097716259 1.12844627667321 -0.13077007626655
| 18> *
| 19>
| 20>                          ****END OF INPUT****

CARTESIAN COORDINATES (ANGSTROEM)
---------------------------------
  N      1.312315   -0.930954    0.272991
  B      1.630424    0.669984    0.111784
  B     -2.209116   -0.420506   -0.148276
  N     -1.694516    0.841077   -0.379708
  H      1.566918   -1.265885    1.205399
  H      1.838178   -1.485709   -0.406131
  H      0.313717   -1.135417    0.140715
  H      2.817813    0.813298    0.358518
  H      1.341569    0.951267   -1.043383
  H      0.909209    1.224724    0.935503
  H     -1.510437   -1.260830    0.387556
  H     -3.336499   -0.703084   -0.473639
  H     -2.232384    1.573587   -0.830558
  H     -0.747191    1.128446   -0.130770

 Total Charge           Charge          ....    0
 Multiplicity           Mult            ....    1
 Number of Electrons    NEL             ....   34
 Basis Dimension        Dim             ....  106

ORBITAL ENERGIES
----------------

  NO   OCC          E(Eh)            E(eV)
   0   2.0000     -14.405021      -391.9806
   1   2.0000     -14.326338      -389.8395
   2   2.0000      -6.749140      -183.6534
   3   2.0000      -6.696470      -182.2202
   4   2.0000      -0.935170       -25.4473
   5   2.0000      -0.852246       -23.1908
   6   2.0000      -0.550256       -14.9732
   7   2.0000      -0.546212       -14.8632
   8   2.0000      -0.523837       -14.2543
   9   2.0000      -0.513703       -13.9786
  10   2.0000      -0.497558       -13.5392
  11   2.0000      -0.398007       -10.8303
  12   2.0000      -0.357813        -9.7366
  13   2.0000      -0.324309        -8.8249
  14   2.0000      -0.302068        -8.2197
  15   2.0000      -0.278914        -7.5896
  16   2.0000      -0.275894        -7.5074
  17   0.0000       0.004020         0.1094
  18   0.0000       0.019027         0.5177
  19   0.0000       0.072137         1.9630
  20   0.0000       0.084897         2.3102
  21   0.0000       0.105925         2.8824

MULLIKEN ATOMIC CHARGES
-----------------------
   0 N :    0.035319
   1 B :   -0.158593
   2 B :   -0.067107
   3 N :   -0.036599
   4 H :    0.145805
   5 H :    0.146327
   6 H :    0.111098
   7 H :   -0.064089
   8 H :   -0.105384
   9 H :   -0.116192
  10 H :   -0.085377
  11 H :   -0.039714
  12 H :    0.123180
  13 H :    0.111326
Sum of atomic charges:   -0.0000000

LOEWDIN ATOMIC CHARGES
----------------------
   0 N :    0.226900
   1 B :   -0.373244
   2 B :   -0.142586
   3 N :    0.076729
   4 H :    0.107869
   5 H :    0.107550
   6 H :    0.097515
   7 H :   -0.053365
   8 H :   -0.058305
   9 H :   -0.060549
  10 H :   -0.060169
  11 H :   -0.044091
  12 H :    0.087042
  13 H :    0.088706

  Mayer bond orders larger than 0.100000
B(  0-N ,  1-B ) :   0.7941 B(  0-N ,  4-H ) :   0.9670 B(  0-N ,  5-H ) :   0.9641
B(  0-N ,  6-H ) :   0.9423 B(  1-B ,  7-H ) :   0.9726 B(  1-B ,  8-H ) :   0.9666
B(  1-B ,  9-H ) :   0.9256 B(  2-B ,  3-N ) :   1.6761 B(  2-B , 10-H ) :   0.9063
B(  2-B , 11-H ) :   0.9639 B(  3-N , 12-H ) :   0.9514 B(  3-N , 13-H ) :   0.9310

Dispersion correction           -0.013317983
FINAL SINGLE POINT ENERGY      -165.039625345785
Dispersion correction             ... done (  0.0 sec)

DIPOLE MOMENT
-------------

Method             : SCF
Type of density    : Electron Density
Multiplicity       :   1
Irrep              :   0
Energy             :  -165.0263073627153290 Eh
Basis              : AO
                                X                 Y                 Z
Electronic contribution:     -2.826533287      -0.745333097      -0.348332612
Nuclear contribution   :      2.741163369      -0.507374834       0.391641989
                        -----------------------------------------
Total Dipole Moment    :     -0.085369918      -1.252707931       0.043309377
                        -----------------------------------------
Magnitude (a.u.)       :      1.256360174
Magnitude (Debye)      :      3.193413776

Rotational constants in cm-1:             0.366942             0.089345             0.074266
Rotational constants in MHz :         11000.633977          2678.485133          2226.440050

                             ****ORCA TERMINATED NORMALLY****
TOTAL RUN TIME: 0 days 0 hours 0 minutes 12 seconds 482 msec
