                         Program Version 6.1.0  -  RELEASE   -
|  1> ! B3LYP def2-SVP d3 EnGrad
|  2> %pal nprocs 6 end
|  3> *xyz 0 1
|  4> C   -0.87595073670098 1.44758026405508 1.8458013249967
|  5> P   -0.18772467122228 0.37370232414861 0.48679604006764
|  6> C   1.62090555737218 0.49806011004882 0.77672555136786
|  7> C   -0.64530013721692 -1.30963571947704 1.07017733928636
|  8> H   -0.4965099296816 1.13939465264697 2.83571142152859
|  9> H   -0.59594559284546 2.49838657314885 1.67215216090835
| 10> H   -1.97514169355406 1.38097467958256 1.85307127348711
| 11> H   -0.32242555949305 -1.46933582775917 2.11248109476105
| 12> H   -1.73708535580941 -1.44072767517418 1.01009943045615
| 13> H   -0.14921670156673 -2.01259932275424 0.38870602517301
| 14> H   1.89659098463781 0.10910032886122 1.77053032370242
| 15> H   1.93117829666351 1.55245283377311 0.70732714055075
| 16> H   2.10044699866925 -0.08977763855833 -0.01714634865679
| 17> H   -0.83111464610365 -1.66446643920091 -2.67059950009735
| 18> C   0.04965930565283 -0.98399210762824 -2.58329465712813
| 19> C   -0.30537544256856 0.34499196004926 -2.07356393347176
| 20> H   0.54832973668943 -0.97515336287142 -3.58433909019391
| 21> H   0.44124376038986 1.13512961081259 -2.17441318689128
| 22> H   -1.33396069125229 0.67846687032428 -1.92963434185503
| 23> O   0.86739651794015 -1.21255211402781 -1.4965880679917
| 24> *
| 25>
| 26>                          ****END OF INPUT****

CARTESIAN COORDINATES (ANGSTROEM)
---------------------------------
  C     -0.875951    1.447580    1.845801
  P     -0.187725    0.373702    0.486796
  C      1.620906    0.498060    0.776726
  C     -0.645300   -1.309636    1.070177
  H     -0.496510    1.139395    2.835711
  H     -0.595946    2.498387    1.672152
  H     -1.975142    1.380975    1.853071
  H     -0.322426   -1.469336    2.112481
  H     -1.737085   -1.440728    1.010099
  H     -0.149217   -2.012599    0.388706
  H      1.896591    0.109100    1.770530
  H      1.931178    1.552453    0.707327
  H      2.100447   -0.089778   -0.017146
  H     -0.831115   -1.664466   -2.670600
  C      0.049659   -0.983992   -2.583295
  C     -0.305375    0.344992   -2.073564
  H      0.548330   -0.975153   -3.584339
  H      0.441244    1.135130   -2.174413
  H     -1.333961    0.678467   -1.929634
  O      0.867397   -1.212552   -1.496588

 Total Charge           Charge          ....    0
 Multiplicity           Mult            ....    1
 Number of Electrons    NEL             ....   66
 Basis Dimension        Dim             ....  167

ORBITAL ENERGIES
----------------

  NO   OCC          E(Eh)            E(eV)
   0   2.0000     -77.065207     -2097.0509
   1   2.0000     -19.049890      -518.3738
   2   2.0000     -10.238946      -278.6159
   3   2.0000     -10.204495      -277.6784
   4   2.0000     -10.189455      -277.2692
   5   2.0000     -10.178376      -276.9677
   6   2.0000     -10.177003      -276.9303
   7   2.0000      -6.559718      -178.4990
   8   2.0000      -4.725443      -128.5858
   9   2.0000      -4.724753      -128.5671
  10   2.0000      -4.723116      -128.5225
  11   2.0000      -0.921585       -25.0776
  12   2.0000      -0.757941       -20.6246
  13   2.0000      -0.694689       -18.9034
  14   2.0000      -0.683329       -18.5943
  15   2.0000      -0.679382       -18.4869
  16   2.0000      -0.575062       -15.6482
  17   2.0000      -0.525271       -14.2934
  18   2.0000      -0.465393       -12.6640
  19   2.0000      -0.435540       -11.8516
  20   2.0000      -0.432170       -11.7599
  21   2.0000      -0.426748       -11.6124
  22   2.0000      -0.426274       -11.5995
  23   2.0000      -0.401974       -10.9383
  24   2.0000      -0.397597       -10.8192
  25   2.0000      -0.385980       -10.5030
  26   2.0000      -0.368772       -10.0348
  27   2.0000      -0.340386        -9.2624
  28   2.0000      -0.334211        -9.0944
  29   2.0000      -0.326670        -8.8892
  30   2.0000      -0.272920        -7.4265
  31   2.0000      -0.200023        -5.4429
  32   2.0000      -0.180061        -4.8997
  33   0.0000      -0.063161        -1.7187
  34   0.0000       0.045282         1.2322
  35   0.0000       0.060617         1.6495
  36   0.0000       0.077266         2.1025
  37   0.0000       0.088305         2.4029

MULLIKEN ATOMIC CHARGES
-----------------------
   0 C :   -0.145219
   1 P :    0.144669
   2 C :   -0.117106
   3 C :   -0.113923
   4 H :    0.039041
   5 H :    0.043626
   6 H :    0.042892
   7 H :    0.030961
   8 H :    0.037752
   9 H :    0.078320
  10 H :    0.032796
  11 H :    0.034123
  12 H :    0.082419
  13 H :   -0.036587
  14 C :    0.294593
  15 C :   -0.040040
  16 H :   -0.029534
  17 H :    0.063817
  18 H :    0.064413
  19 O :   -0.507011
Sum of atomic charges:   -0.0000000

LOEWDIN ATOMIC CHARGES
----------------------
   0 C :   -0.221688
   1 P :    0.658087
   2 C :   -0.201410
   3 C :   -0.201714
   4 H :    0.024596
   5 H :    0.027088
   6 H :    0.027034
   7 H :    0.022331
   8 H :    0.026841
   9 H :    0.037254
  10 H :    0.024033
  11 H :    0.025445
  12 H :    0.038155
  13 H :   -0.010941
  14 C :    0.027310
  15 C :    0.062353
  16 H :   -0.008130
  17 H :    0.031098
  18 H :    0.016365
  19 O :   -0.404107

  Mayer bond orders larger than 0.100000
B(  0-C ,  1-P ) :   0.9324 B(  0-C ,  4-H ) :   0.9504 B(  0-C ,  5-H ) :   0.9689
B(  0-C ,  6-H ) :   0.9694 B(  1-P ,  2-C ) :   1.0261 B(  1-P ,  3-C ) :   1.0196
B(  1-P , 15-C ) :   0.4230 B(  1-P , 19-O ) :   0.1930 B(  2-C , 10-H ) :   0.9493
B(  2-C , 11-H ) :   0.9630 B(  2-C , 12-H ) :   0.9429 B(  3-C ,  7-H ) :   0.9463
B(  3-C ,  8-H ) :   0.9647 B(  3-C ,  9-H ) :   0.9417 B( 13-H , 14-C ) :   0.9117
B( 14-C , 15-C ) :   1.1036 B( 14-C , 16-H ) :   0.9081 B( 14-C , 19-O ) :   1.0749
B( 15-C , 17-H ) :   0.9585 B( 15-C , 18-H ) :   0.9520 B( 15-C , 19-O ) :   0.4354

Dispersion correction           -0.031659927
FINAL SINGLE POINT ENERGY      -614.305811522149
Dispersion correction             ... done (  0.1 sec)

DIPOLE MOMENT
-------------

Method             : SCF
Type of density    : Electron Density
Multiplicity       :   1
Irrep              :   0
Energy             :  -614.2741515949410314 Eh
Basis              : AO
                                X                 Y                 Z
Electronic contribution:      0.111167354      -0.136072635      -2.569347768
Nuclear contribution   :     -0.843966538       1.098560287       3.133617437
                        -----------------------------------------
Total Dipole Moment    :     -0.732799184       0.962487652       0.564269669
                        -----------------------------------------
Magnitude (a.u.)       :      1.334832343
Magnitude (Debye)      :      3.392874180

Rotational constants in cm-1:             0.107254             0.041741             0.041454
Rotational constants in MHz :          3215.383877          1251.365131          1242.761157

                             ****ORCA TERMINATED NORMALLY****
TOTAL RUN TIME: 0 days 0 hours 0 minutes 30 seconds 169 msec
