                         Program Version 6.1.0  -  RELEASE   -
|  1> ! B3LYP def2-SVP d3 EnGrad
|  2> %pal nprocs 6 end
|  3> *xyz 0 1
|  4> P   0.28870661615394 -0.68169384910029 0.59903722956915
|  5> H   0.87424893922599 -1.17842549002509 1.78787462487657
|  6> C   1.5309693813462 -0.2160250296042 -0.53102214375107
|  7> C   -0.8078421111276 -2.02471149554507 0.00346805523903
|  8> H   0.96871564160745 1.10688536634855 -0.64248704714424
|  9> H   2.55453925400852 -0.22224849128374 -0.1400616864029
| 10> H   1.44725957456901 -0.63904711067367 -1.53931218149972
| 11> H   -1.18284270987976 -1.73288005414683 -0.98976094671147
| 12> H   -0.28108599912528 -2.98580874296599 -0.08509698191408
| 13> H   -1.6720268599115 -2.13764682933862 0.67733699738299
| 14> H   -0.54520203268226 2.20651317457129 -1.33384641091249
| 15> C   -0.09640904056762 2.02810973888925 -0.34891169042696
| 16> C   -0.84904938314379 1.23519408571779 0.57800817395772
| 17> H   0.43976159216095 2.89571250277226 0.05441058923923
| 18> H   -0.84302931609166 1.50421012105956 1.64078824954872
| 19> H   -1.82671354654257 0.84186210332481 0.26957516894953
| 20> *
| 21>
| 22>                          ****END OF INPUT****

CARTESIAN COORDINATES (ANGSTROEM)
---------------------------------
  P      0.288707   -0.681694    0.599037
  H      0.874249   -1.178425    1.787875
  C      1.530969   -0.216025   -0.531022
  C     -0.807842   -2.024711    0.003468
  H      0.968716    1.106885   -0.642487
  H      2.554539   -0.222248   -0.140062
  H      1.447260   -0.639047   -1.539312
  H     -1.182843   -1.732880   -0.989761
  H     -0.281086   -2.985809   -0.085097
  H     -1.672027   -2.137647    0.677337
  H     -0.545202    2.206513   -1.333846
  C     -0.096409    2.028110   -0.348912
  C     -0.849049    1.235194    0.578008
  H      0.439762    2.895713    0.054411
  H     -0.843029    1.504210    1.640788
  H     -1.826714    0.841862    0.269575

 Total Charge           Charge          ....    0
 Multiplicity           Mult            ....    1
 Number of Electrons    NEL             ....   50
 Basis Dimension        Dim             ....  129

ORBITAL ENERGIES
----------------

  NO   OCC          E(Eh)            E(eV)
   0   2.0000     -77.075477     -2097.3303
   1   2.0000     -10.205809      -277.7142
   2   2.0000     -10.181387      -277.0496
   3   2.0000     -10.152574      -276.2656
   4   2.0000     -10.131283      -275.6862
   5   2.0000      -6.572025      -178.8339
   6   2.0000      -4.737766      -128.9212
   7   2.0000      -4.736957      -128.8992
   8   2.0000      -4.735690      -128.8647
   9   2.0000      -0.760876       -20.7045
  10   2.0000      -0.716518       -19.4975
  11   2.0000      -0.671767       -18.2797
  12   2.0000      -0.575067       -15.6484
  13   2.0000      -0.537574       -14.6281
  14   2.0000      -0.451957       -12.2984
  15   2.0000      -0.432888       -11.7795
  16   2.0000      -0.426808       -11.6140
  17   2.0000      -0.409011       -11.1298
  18   2.0000      -0.404724       -11.0131
  19   2.0000      -0.369066       -10.0428
  20   2.0000      -0.361333        -9.8324
  21   2.0000      -0.341374        -9.2893
  22   2.0000      -0.324171        -8.8212
  23   2.0000      -0.258648        -7.0382
  24   2.0000      -0.165219        -4.4958
  25   0.0000       0.021634         0.5887
  26   0.0000       0.041844         1.1386
  27   0.0000       0.065477         1.7817
  28   0.0000       0.068113         1.8534
  29   0.0000       0.092005         2.5036

MULLIKEN ATOMIC CHARGES
-----------------------
   0 P :    0.230129
   1 H :   -0.010171
   2 C :   -0.257142
   3 C :   -0.141746
   4 H :    0.073254
   5 H :    0.043666
   6 H :    0.037673
   7 H :    0.059668
   8 H :    0.063644
   9 H :    0.055477
  10 H :    0.003182
  11 C :   -0.110389
  12 C :   -0.103002
  13 H :    0.005495
  14 H :    0.031835
  15 H :    0.018426
Sum of atomic charges:    0.0000000

LOEWDIN ATOMIC CHARGES
----------------------
   0 P :    0.705314
   1 H :   -0.059598
   2 C :   -0.364717
   3 C :   -0.204010
   4 H :    0.055512
   5 H :    0.023187
   6 H :    0.021930
   7 H :    0.039442
   8 H :    0.034520
   9 H :    0.033591
  10 H :    0.011260
  11 C :   -0.201838
  12 C :   -0.136141
  13 H :    0.013306
  14 H :    0.014985
  15 H :    0.013258

  Mayer bond orders larger than 0.100000
B(  0-P ,  1-H ) :   0.9146 B(  0-P ,  2-C ) :   1.2644 B(  0-P ,  3-C ) :   1.0225
B(  0-P , 12-C ) :   0.5352 B(  2-C ,  4-H ) :   0.4689 B(  2-C ,  5-H ) :   0.9519
B(  2-C ,  6-H ) :   0.9505 B(  3-C ,  7-H ) :   0.9561 B(  3-C ,  8-H ) :   0.9652
B(  3-C ,  9-H ) :   0.9600 B(  4-H , 11-C ) :   0.5356 B( 10-H , 11-C ) :   0.9572
B( 11-C , 12-C ) :   1.3855 B( 11-C , 13-H ) :   0.9557 B( 12-C , 14-H ) :   0.9565
B( 12-C , 15-H ) :   0.9494

Dispersion correction           -0.023756262
FINAL SINGLE POINT ENERGY      -499.923649774703
Dispersion correction             ... done (  0.1 sec)

DIPOLE MOMENT
-------------

Method             : SCF
Type of density    : Electron Density
Multiplicity       :   1
Irrep              :   0
Energy             :  -499.8998935125874823 Eh
Basis              : AO
                                X                 Y                 Z
Electronic contribution:      0.659221381      -2.304411683       2.717489757
Nuclear contribution   :     -0.969373689       1.249272353      -2.351603462
                        -----------------------------------------
Total Dipole Moment    :     -0.310152308      -1.055139331       0.365886295
                        -----------------------------------------
Magnitude (a.u.)       :      1.159045401
Magnitude (Debye)      :      2.946059283

Rotational constants in cm-1:             0.177523             0.087709             0.070618
Rotational constants in MHz :          5322.014758          2629.447980          2117.068431

                             ****ORCA TERMINATED NORMALLY****
TOTAL RUN TIME: 0 days 0 hours 0 minutes 17 seconds 639 msec
