                         Program Version 6.1.0  -  RELEASE   -
|  1> ! B3LYP def2-SVP d3 EnGrad
|  2> %pal nprocs 6 end
|  3> *xyz 0 1
|  4> C   -0.02822812807053 -0.86342742974955 1.11870704490075
|  5> O   0.88909152066675 -1.36802072439507 1.74316705090602
|  6> C   0.34467453813506 0.31385184589559 0.26248185197844
|  7> F   -0.99264717712205 0.06140675872078 1.85842978112674
|  8> F   -0.89995329898607 -1.64531950687512 0.40012780433518
|  9> C   -0.04047233727638 0.54399995918492 -1.21517020413787
| 10> F   1.15644924493079 1.16356874102973 0.72739253234529
| 11> F   0.4109371656866 -0.49532432186082 -1.90751867966866
| 12> F   -1.35529220626069 0.62957365722766 -1.31397463793036
| 13> F   0.51544067829651 1.65969102082188 -1.67364254385554
| 14> *
| 15>
| 16>                          ****END OF INPUT****

CARTESIAN COORDINATES (ANGSTROEM)
---------------------------------
  C     -0.028228   -0.863427    1.118707
  O      0.889092   -1.368021    1.743167
  C      0.344675    0.313852    0.262482
  F     -0.992647    0.061407    1.858430
  F     -0.899953   -1.645320    0.400128
  C     -0.040472    0.544000   -1.215170
  F      1.156449    1.163569    0.727393
  F      0.410937   -0.495324   -1.907519
  F     -1.355292    0.629574   -1.313975
  F      0.515441    1.659691   -1.673643

 Total Charge           Charge          ....    0
 Multiplicity           Mult            ....    1
 Number of Electrons    NEL             ....   80
 Basis Dimension        Dim             ....  140

ORBITAL ENERGIES
----------------

  NO   OCC          E(Eh)            E(eV)
   0   2.0000     -24.858374      -676.4308
   1   2.0000     -24.789757      -674.5636
   2   2.0000     -24.789045      -674.5442
   3   2.0000     -24.787719      -674.5081
   4   2.0000     -24.701993      -672.1754
   5   2.0000     -24.685183      -671.7180
   6   2.0000     -19.127620      -520.4890
   7   2.0000     -10.516557      -286.1701
   8   2.0000     -10.443253      -284.1754
   9   2.0000     -10.399952      -282.9971
  10   2.0000      -1.391893       -37.8753
  11   2.0000      -1.371040       -37.3079
  12   2.0000      -1.282383       -34.8954
  13   2.0000      -1.281220       -34.8638
  14   2.0000      -1.229862       -33.4662
  15   2.0000      -1.150905       -31.3177
  16   2.0000      -1.038856       -28.2687
  17   2.0000      -0.856874       -23.3167
  18   2.0000      -0.755950       -20.5704
  19   2.0000      -0.707799       -19.2602
  20   2.0000      -0.693814       -18.8796
  21   2.0000      -0.668070       -18.1791
  22   2.0000      -0.658772       -17.9261
  23   2.0000      -0.616073       -16.7642
  24   2.0000      -0.601008       -16.3543
  25   2.0000      -0.551711       -15.0128
  26   2.0000      -0.544196       -14.8083
  27   2.0000      -0.535183       -14.5631
  28   2.0000      -0.532268       -14.4838
  29   2.0000      -0.502666       -13.6782
  30   2.0000      -0.499935       -13.6039
  31   2.0000      -0.481394       -13.0994
  32   2.0000      -0.475654       -12.9432
  33   2.0000      -0.469233       -12.7685
  34   2.0000      -0.426826       -11.6145
  35   2.0000      -0.425645       -11.5824
  36   2.0000      -0.395358       -10.7582
  37   2.0000      -0.393977       -10.7207
  38   2.0000      -0.314567        -8.5598
  39   2.0000      -0.302404        -8.2288
  40   0.0000      -0.197433        -5.3724
  41   0.0000       0.036645         0.9972
  42   0.0000       0.093863         2.5542
  43   0.0000       0.107982         2.9383
  44   0.0000       0.147748         4.0204

MULLIKEN ATOMIC CHARGES
-----------------------
   0 C :    0.433776
   1 O :   -0.227410
   2 C :    0.108606
   3 F :   -0.285896
   4 F :   -0.204877
   5 C :    0.534613
   6 F :    0.003244
   7 F :   -0.121512
   8 F :   -0.111531
   9 F :   -0.129012
Sum of atomic charges:    0.0000000

LOEWDIN ATOMIC CHARGES
----------------------
   0 C :    0.039858
   1 O :   -0.186279
   2 C :    0.210142
   3 F :   -0.189125
   4 F :   -0.105589
   5 C :    0.126007
   6 F :    0.140232
   7 F :   -0.009832
   8 F :   -0.001969
   9 F :   -0.023445

  Mayer bond orders larger than 0.100000
B(  0-C ,  1-O ) :   1.9285 B(  0-C ,  2-C ) :   0.8246 B(  0-C ,  3-F ) :   0.6977
B(  0-C ,  4-F ) :   1.0644 B(  1-O ,  2-C ) :   0.1983 B(  2-C ,  3-F ) :   0.2939
B(  2-C ,  5-C ) :   0.8566 B(  2-C ,  6-F ) :   1.3378 B(  5-C ,  7-F ) :   1.1686
B(  5-C ,  8-F ) :   1.1861 B(  5-C ,  9-F ) :   1.1752

Dispersion correction           -0.012341458
FINAL SINGLE POINT ENERGY      -787.568686934579
Dispersion correction             ... done (  0.1 sec)

DIPOLE MOMENT
-------------

Method             : SCF
Type of density    : Electron Density
Multiplicity       :   1
Irrep              :   0
Energy             :  -787.5563454769509235 Eh
Basis              : AO
                                X                 Y                 Z
Electronic contribution:     -0.592067792       2.395836300      -2.803037814
Nuclear contribution   :      0.939179597      -1.154600666       1.581380282
                        -----------------------------------------
Total Dipole Moment    :      0.347111805       1.241235634      -1.221657533
                        -----------------------------------------
Magnitude (a.u.)       :      1.775837727
Magnitude (Debye)      :      4.513820782

Rotational constants in cm-1:             0.068519             0.036197             0.032189
Rotational constants in MHz :          2054.149464          1085.146107           964.999873

                             ****ORCA TERMINATED NORMALLY****
TOTAL RUN TIME: 0 days 0 hours 0 minutes 20 seconds 615 msec
