                         Program Version 6.1.0  -  RELEASE   -
|  1> ! B3LYP def2-SVP d3 EnGrad
|  2> %pal nprocs 6 end
|  3> *xyz 0 1
|  4> C   1.31929815048793 -0.10123225093485 -0.04695781187089
|  5> O   0.01895841547674 1.87973254980771 0.37553887425429
|  6> C   0.00765452733703 0.7104339948418 0.13714864580148
|  7> F   2.33775795862233 0.71650697865042 -0.27308864983278
|  8> F   1.20139471212655 -0.94819066155561 -1.07547561159721
|  9> C   -1.31966977606333 -0.08275894077626 -0.01013035284087
| 10> F   1.56644257208483 -0.80743706503063 1.06139297134305
| 11> F   -2.32478430294059 0.59735021522763 0.52312706559621
| 12> F   -1.57167942415959 -0.28721259174115 -1.30723110860252
| 13> F   -1.22337183297191 -1.26966522848908 0.59890297774923
| 14> *
| 15>
| 16>                          ****END OF INPUT****

CARTESIAN COORDINATES (ANGSTROEM)
---------------------------------
  C      1.319298   -0.101232   -0.046958
  O      0.018958    1.879733    0.375539
  C      0.007655    0.710434    0.137149
  F      2.337758    0.716507   -0.273089
  F      1.201395   -0.948191   -1.075476
  C     -1.319670   -0.082759   -0.010130
  F      1.566443   -0.807437    1.061393
  F     -2.324784    0.597350    0.523127
  F     -1.571679   -0.287213   -1.307231
  F     -1.223372   -1.269665    0.598903

 Total Charge           Charge          ....    0
 Multiplicity           Mult            ....    1
 Number of Electrons    NEL             ....   80
 Basis Dimension        Dim             ....  140

ORBITAL ENERGIES
----------------

  NO   OCC          E(Eh)            E(eV)
   0   2.0000     -24.751875      -673.5328
   1   2.0000     -24.751805      -673.5309
   2   2.0000     -24.750414      -673.4930
   3   2.0000     -24.750300      -673.4899
   4   2.0000     -24.750244      -673.4884
   5   2.0000     -24.750190      -673.4869
   6   2.0000     -19.208694      -522.6951
   7   2.0000     -10.467185      -284.8266
   8   2.0000     -10.467167      -284.8261
   9   2.0000     -10.344470      -281.4873
  10   2.0000      -1.336607       -36.3709
  11   2.0000      -1.331418       -36.2297
  12   2.0000      -1.243680       -33.8423
  13   2.0000      -1.241804       -33.7912
  14   2.0000      -1.240602       -33.7585
  15   2.0000      -1.239120       -33.7182
  16   2.0000      -1.116144       -30.3718
  17   2.0000      -0.797560       -21.7027
  18   2.0000      -0.737186       -20.0598
  19   2.0000      -0.677652       -18.4399
  20   2.0000      -0.643189       -17.5020
  21   2.0000      -0.629730       -17.1358
  22   2.0000      -0.626369       -17.0444
  23   2.0000      -0.623148       -16.9567
  24   2.0000      -0.615581       -16.7508
  25   2.0000      -0.526260       -14.3203
  26   2.0000      -0.505647       -13.7594
  27   2.0000      -0.502154       -13.6643
  28   2.0000      -0.500624       -13.6227
  29   2.0000      -0.495731       -13.4895
  30   2.0000      -0.481685       -13.1073
  31   2.0000      -0.469614       -12.7789
  32   2.0000      -0.464301       -12.6343
  33   2.0000      -0.458051       -12.4642
  34   2.0000      -0.454352       -12.3635
  35   2.0000      -0.446029       -12.1371
  36   2.0000      -0.441641       -12.0177
  37   2.0000      -0.440283       -11.9807
  38   2.0000      -0.439587       -11.9618
  39   2.0000      -0.323104        -8.7921
  40   0.0000      -0.105427        -2.8688
  41   0.0000       0.083287         2.2663
  42   0.0000       0.132110         3.5949
  43   0.0000       0.144158         3.9227
  44   0.0000       0.159960         4.3527

MULLIKEN ATOMIC CHARGES
-----------------------
   0 C :    0.532092
   1 O :   -0.104124
   2 C :   -0.077274
   3 F :   -0.134092
   4 F :   -0.153284
   5 C :    0.532048
   6 F :   -0.154020
   7 F :   -0.134038
   8 F :   -0.153984
   9 F :   -0.153325
Sum of atomic charges:    0.0000000

LOEWDIN ATOMIC CHARGES
----------------------
   0 C :    0.132009
   1 O :   -0.033541
   2 C :   -0.000529
   3 F :   -0.025981
   4 F :   -0.045840
   5 C :    0.131880
   6 F :   -0.043184
   7 F :   -0.025986
   8 F :   -0.042958
   9 F :   -0.045869

  Mayer bond orders larger than 0.100000
B(  0-C ,  2-C ) :   0.8436 B(  0-C ,  3-F ) :   1.1837 B(  0-C ,  4-F ) :   1.1438
B(  0-C ,  6-F ) :   1.1466 B(  1-O ,  2-C ) :   2.2287 B(  2-C ,  5-C ) :   0.8438
B(  5-C ,  7-F ) :   1.1838 B(  5-C ,  8-F ) :   1.1463 B(  5-C ,  9-F ) :   1.1436

Dispersion correction           -0.012502336
FINAL SINGLE POINT ENERGY      -787.687422936718
Dispersion correction             ... done (  0.0 sec)

DIPOLE MOMENT
-------------

Method             : SCF
Type of density    : Electron Density
Multiplicity       :   1
Irrep              :   0
Energy             :  -787.6749206007156090 Eh
Basis              : AO
                                X                 Y                 Z
Electronic contribution:     -0.019558239      -1.982402575      -0.406573734
Nuclear contribution   :      0.017490495       1.827070584       0.376287946
                        -----------------------------------------
Total Dipole Moment    :     -0.002067744      -0.155331991      -0.030285787
                        -----------------------------------------
Magnitude (a.u.)       :      0.158270440
Magnitude (Debye)      :      0.402291487

Rotational constants in cm-1:             0.072451             0.034590             0.031167
Rotational constants in MHz :          2172.024547          1036.968817           934.350980

                             ****ORCA TERMINATED NORMALLY****
TOTAL RUN TIME: 0 days 0 hours 0 minutes 16 seconds 258 msec
