                         Program Version 6.1.0  -  RELEASE   -
|  1> ! B3LYP def2-SVP d3 EnGrad
|  2> %pal nprocs 6 end
|  3> *xyz 0 1
|  4> C   -0.17490839928854 0.95614803451072 0.48005271918634
|  5> C   1.24879571606933 0.79573409319449 0.43780239043891
|  6> C   1.46336024117264 -0.26000457934811 -0.42013576194426
|  7> C   0.20984048955666 -0.95350197316442 -0.47539070448175
|  8> C   -0.95202137882846 1.34668136345689 1.70739053396893
|  9> C   -0.34565014422058 -1.6007806110664 -1.71447643830845
| 10> H   -0.66128279068823 1.19691898489968 -0.46866536148672
| 11> H   1.97277139013456 1.34257324232488 1.05521581652807
| 12> H   2.34753455676375 -0.48610743699795 -1.02946278513015
| 13> H   -0.15388892061692 -1.3668700574165 0.46853636355491
| 14> H   -0.54380212140746 0.88983944766754 2.62270215228952
| 15> H   -2.01063246862042 1.05346644359557 1.62001774379123
| 16> H   -0.93928907623802 2.44562179709482 1.84670992659691
| 17> H   0.20659345221115 -2.53329286692209 -1.94473913438848
| 18> H   -0.26383383423694 -0.94761426035875 -2.59827183327301
| 19> H   -1.40358671176249 -1.87881162147037 -1.58728562734202
| 20> *
| 21>
| 22>                          ****END OF INPUT****

CARTESIAN COORDINATES (ANGSTROEM)
---------------------------------
  C     -0.174908    0.956148    0.480053
  C      1.248796    0.795734    0.437802
  C      1.463360   -0.260005   -0.420136
  C      0.209840   -0.953502   -0.475391
  C     -0.952021    1.346681    1.707391
  C     -0.345650   -1.600781   -1.714476
  H     -0.661283    1.196919   -0.468665
  H      1.972771    1.342573    1.055216
  H      2.347535   -0.486107   -1.029463
  H     -0.153889   -1.366870    0.468536
  H     -0.543802    0.889839    2.622702
  H     -2.010632    1.053466    1.620018
  H     -0.939289    2.445622    1.846710
  H      0.206593   -2.533293   -1.944739
  H     -0.263834   -0.947614   -2.598272
  H     -1.403587   -1.878812   -1.587286

 Total Charge           Charge          ....    0
 Multiplicity           Mult            ....    1
 Number of Electrons    NEL             ....   46
 Basis Dimension        Dim             ....  134

ORBITAL ENERGIES
----------------

  NO   OCC          E(Eh)            E(eV)
   0   2.0000     -10.193612      -277.3823
   1   2.0000     -10.193533      -277.3801
   2   2.0000     -10.179921      -277.0097
   3   2.0000     -10.179912      -277.0095
   4   2.0000     -10.170256      -276.7467
   5   2.0000     -10.169752      -276.7330
   6   2.0000      -0.818271       -22.2663
   7   2.0000      -0.739420       -20.1206
   8   2.0000      -0.704973       -19.1833
   9   2.0000      -0.609410       -16.5829
  10   2.0000      -0.573821       -15.6145
  11   2.0000      -0.510269       -13.8851
  12   2.0000      -0.459987       -12.5169
  13   2.0000      -0.441472       -12.0131
  14   2.0000      -0.424765       -11.5585
  15   2.0000      -0.405541       -11.0353
  16   2.0000      -0.401925       -10.9369
  17   2.0000      -0.384086       -10.4515
  18   2.0000      -0.355762        -9.6808
  19   2.0000      -0.352355        -9.5881
  20   2.0000      -0.338694        -9.2163
  21   2.0000      -0.233614        -6.3570
  22   2.0000      -0.213824        -5.8184
  23   0.0000      -0.006798        -0.1850
  24   0.0000       0.018227         0.4960
  25   0.0000       0.073711         2.0058
  26   0.0000       0.080800         2.1987
  27   0.0000       0.106147         2.8884

MULLIKEN ATOMIC CHARGES
-----------------------
   0 C :   -0.118566
   1 C :   -0.020936
   2 C :   -0.023540
   3 C :   -0.115389
   4 C :    0.070451
   5 C :    0.068466
   6 H :    0.038916
   7 H :   -0.020812
   8 H :   -0.021181
   9 H :    0.039021
  10 H :    0.012392
  11 H :    0.015826
  12 H :    0.023205
  13 H :    0.023712
  14 H :    0.014522
  15 H :    0.013913
Sum of atomic charges:    0.0000000

LOEWDIN ATOMIC CHARGES
----------------------
   0 C :   -0.009069
   1 C :   -0.055146
   2 C :   -0.055518
   3 C :   -0.009012
   4 C :   -0.067368
   5 C :   -0.067422
   6 H :    0.028171
   7 H :    0.010291
   8 H :    0.010187
   9 H :    0.028373
  10 H :    0.025252
  11 H :    0.031767
  12 H :    0.036385
  13 H :    0.037239
  14 H :    0.026038
  15 H :    0.029832

  Mayer bond orders larger than 0.100000
B(  0-C ,  1-C ) :   1.3236 B(  0-C ,  3-C ) :   0.6387 B(  0-C ,  4-C ) :   1.0729
B(  0-C ,  6-H ) :   0.9257 B(  1-C ,  2-C ) :   1.5384 B(  1-C ,  7-H ) :   0.9924
B(  2-C ,  3-C ) :   1.3235 B(  2-C ,  8-H ) :   0.9928 B(  3-C ,  5-C ) :   1.0735
B(  3-C ,  9-H ) :   0.9266 B(  4-C , 10-H ) :   0.9689 B(  4-C , 11-H ) :   0.9590
B(  4-C , 12-H ) :   0.9424 B(  5-C , 13-H ) :   0.9426 B(  5-C , 14-H ) :   0.9673
B(  5-C , 15-H ) :   0.9610

Dispersion correction           -0.021293829
FINAL SINGLE POINT ENERGY      -234.241521338793
Dispersion correction             ... done (  0.0 sec)

DIPOLE MOMENT
-------------

Method             : SCF
Type of density    : Electron Density
Multiplicity       :   1
Irrep              :   0
Energy             :  -234.2202275095403934 Eh
Basis              : AO
                                X                 Y                 Z
Electronic contribution:      2.918116349       0.572822307       0.029141353
Nuclear contribution   :     -3.181196153      -0.623932972      -0.033454940
                        -----------------------------------------
Total Dipole Moment    :     -0.263079804      -0.051110665      -0.004313587
                        -----------------------------------------
Magnitude (a.u.)       :      0.268033376
Magnitude (Debye)      :      0.681286699

Rotational constants in cm-1:             0.210040             0.077404             0.060681
Rotational constants in MHz :          6296.845922          2320.516630          1819.156102

                             ****ORCA TERMINATED NORMALLY****
TOTAL RUN TIME: 0 days 0 hours 0 minutes 18 seconds 173 msec
