                         Program Version 6.1.0  -  RELEASE   -
|  1> ! B3LYP def2-SVP d3 EnGrad
|  2> %pal nprocs 6 end
|  3> *xyz 0 1
|  4> C   1.83945643409847 0.39613536300878 -0.15975053037652
|  5> C   0.45337936835536 0.91118630256385 0.09216479568113
|  6> C   -0.69108898485499 0.2075493899077 0.07229935391829
|  7> C   -0.87285462891165 -1.2575398963602 -0.17204474211443
|  8> O   -1.91330091729381 0.80622049265855 0.30195833998646
|  9> H   2.29827554841339 0.88904732190197 -1.03566471956331
| 10> H   1.85775142267028 -0.68733446196324 -0.34568905413405
| 11> H   2.5063820346229 0.59751331530235 0.69732113860113
| 12> H   0.08367537301455 -1.78679178447205 -0.25261828717007
| 13> H   -1.44898266698688 -1.41811955905276 -1.09912481260306
| 14> H   -1.46681708524288 -1.6828110440187 0.65253153502651
| 15> H   -1.78552143702666 1.75871241460693 0.41722004028539
| 16> H   0.37232253135048 1.98728693855676 0.30310912453448
| 17> H   -2.8345346195475 -0.24801124831881 1.68379543692597
| 18> O   -2.95789081483578 -0.92844154374678 2.36815762283002
| 19> H   -2.20153355782524 -0.77997200057437 2.95187275817202
| 20> *
| 21>
| 22>                          ****END OF INPUT****

CARTESIAN COORDINATES (ANGSTROEM)
---------------------------------
  C      1.839456    0.396135   -0.159751
  C      0.453379    0.911186    0.092165
  C     -0.691089    0.207549    0.072299
  C     -0.872855   -1.257540   -0.172045
  O     -1.913301    0.806220    0.301958
  H      2.298276    0.889047   -1.035665
  H      1.857751   -0.687334   -0.345689
  H      2.506382    0.597513    0.697321
  H      0.083675   -1.786792   -0.252618
  H     -1.448983   -1.418120   -1.099125
  H     -1.466817   -1.682811    0.652532
  H     -1.785521    1.758712    0.417220
  H      0.372323    1.987287    0.303109
  H     -2.834535   -0.248011    1.683795
  O     -2.957891   -0.928442    2.368158
  H     -2.201534   -0.779972    2.951873

 Total Charge           Charge          ....    0
 Multiplicity           Mult            ....    1
 Number of Electrons    NEL             ....   50
 Basis Dimension        Dim             ....  134

ORBITAL ENERGIES
----------------

  NO   OCC          E(Eh)            E(eV)
   0   2.0000     -19.169650      -521.6327
   1   2.0000     -19.102519      -519.8060
   2   2.0000     -10.244265      -278.7606
   3   2.0000     -10.187900      -277.2269
   4   2.0000     -10.182295      -277.0743
   5   2.0000     -10.178635      -276.9747
   6   2.0000      -1.050174       -28.5767
   7   2.0000      -0.961258       -26.1572
   8   2.0000      -0.783856       -21.3298
   9   2.0000      -0.722232       -19.6529
  10   2.0000      -0.650833       -17.7101
  11   2.0000      -0.584437       -15.9033
  12   2.0000      -0.500660       -13.6237
  13   2.0000      -0.493568       -13.4307
  14   2.0000      -0.449649       -12.2356
  15   2.0000      -0.437049       -11.8927
  16   2.0000      -0.406714       -11.0672
  17   2.0000      -0.403988       -10.9931
  18   2.0000      -0.386642       -10.5211
  19   2.0000      -0.376079       -10.2336
  20   2.0000      -0.364269        -9.9123
  21   2.0000      -0.355307        -9.6684
  22   2.0000      -0.344587        -9.3767
  23   2.0000      -0.276762        -7.5311
  24   2.0000      -0.223935        -6.0936
  25   0.0000       0.032068         0.8726
  26   0.0000       0.040836         1.1112
  27   0.0000       0.068258         1.8574
  28   0.0000       0.077251         2.1021
  29   0.0000       0.094433         2.5697

MULLIKEN ATOMIC CHARGES
-----------------------
   0 C :    0.075051
   1 C :   -0.152453
   2 C :   -0.013433
   3 C :    0.092102
   4 O :   -0.238688
   5 H :    0.018801
   6 H :    0.006758
   7 H :    0.016779
   8 H :    0.005543
   9 H :    0.028260
  10 H :    0.010616
  11 H :    0.175878
  12 H :   -0.032626
  13 H :    0.152247
  14 O :   -0.290017
  15 H :    0.145183
Sum of atomic charges:   -0.0000000

LOEWDIN ATOMIC CHARGES
----------------------
   0 C :   -0.050719
   1 C :   -0.128126
   2 C :    0.035331
   3 C :   -0.057954
   4 O :   -0.061761
   5 H :    0.029746
   6 H :    0.025912
   7 H :    0.028847
   8 H :    0.029304
   9 H :    0.039096
  10 H :    0.030345
  11 H :    0.089932
  12 H :    0.015233
  13 H :    0.048939
  14 O :   -0.144826
  15 H :    0.070702

  Mayer bond orders larger than 0.100000
B(  0-C ,  1-C ) :   1.0862 B(  0-C ,  5-H ) :   0.9508 B(  0-C ,  6-H ) :   0.9628
B(  0-C ,  7-H ) :   0.9527 B(  1-C ,  2-C ) :   1.8366 B(  1-C , 12-H ) :   0.9354
B(  2-C ,  3-C ) :   1.0935 B(  2-C ,  4-O ) :   1.0773 B(  3-C ,  8-H ) :   0.9514
B(  3-C ,  9-H ) :   0.9389 B(  3-C , 10-H ) :   0.9161 B(  4-O , 11-H ) :   0.9569
B( 10-H , 14-O ) :   0.1204 B( 13-H , 14-O ) :   0.9660 B( 14-O , 15-H ) :   1.0061

Dispersion correction           -0.018183363
FINAL SINGLE POINT ENERGY      -308.484215585344
Dispersion correction             ... done (  0.0 sec)

DIPOLE MOMENT
-------------

Method             : SCF
Type of density    : Electron Density
Multiplicity       :   1
Irrep              :   0
Energy             :  -308.4660322219745581 Eh
Basis              : AO
                                X                 Y                 Z
Electronic contribution:     -4.074588608       2.074328932       0.726266627
Nuclear contribution   :      4.970913708      -1.261864528      -0.902792304
                        -----------------------------------------
Total Dipole Moment    :      0.896325100       0.812464404      -0.176525677
                        -----------------------------------------
Magnitude (a.u.)       :      1.222562230
Magnitude (Debye)      :      3.107506232

Rotational constants in cm-1:             0.181265             0.050336             0.047003
Rotational constants in MHz :          5434.188326          1509.039455          1409.107724

                             ****ORCA TERMINATED NORMALLY****
TOTAL RUN TIME: 0 days 0 hours 0 minutes 17 seconds 164 msec
