                         Program Version 6.1.0  -  RELEASE   -
|  1> ! B3LYP def2-SVP d3 EnGrad
|  2> %pal nprocs 6 end
|  3> *xyz 0 1
|  4> C   0.744691052374 -0.23137162683551 0.05180118655181
|  5> O   0.77856411261743 -0.57754501636755 -1.22017424144039
|  6> N   -0.77812092440474 0.27680987874375 0.07917731513212
|  7> H   -1.43985744955214 -0.26952621188107 0.63974366104406
|  8> H   0.80970848306349 -1.02810305647536 0.83961348678679
|  9> H   1.35881025471235 0.64127399272521 0.39958307751948
| 10> H   -0.54334276035195 -0.0902569486144 -1.02378368645439
| 11> H   -0.93045276845845 1.27871898870492 0.2340392008605
| 12> *
| 13>
| 14>                          ****END OF INPUT****

CARTESIAN COORDINATES (ANGSTROEM)
---------------------------------
  C      0.744691   -0.231372    0.051801
  O      0.778564   -0.577545   -1.220174
  N     -0.778121    0.276810    0.079177
  H     -1.439857   -0.269526    0.639744
  H      0.809708   -1.028103    0.839613
  H      1.358810    0.641274    0.399583
  H     -0.543343   -0.090257   -1.023784
  H     -0.930453    1.278719    0.234039

 Total Charge           Charge          ....    0
 Multiplicity           Mult            ....    1
 Number of Electrons    NEL             ....   26
 Basis Dimension        Dim             ....   67

ORBITAL ENERGIES
----------------

  NO   OCC          E(Eh)            E(eV)
   0   2.0000     -19.034031      -517.9423
   1   2.0000     -14.383423      -391.3928
   2   2.0000     -10.257848      -279.1302
   3   2.0000      -0.977851       -26.6087
   4   2.0000      -0.872445       -23.7404
   5   2.0000      -0.614064       -16.7095
   6   2.0000      -0.546372       -14.8675
   7   2.0000      -0.541314       -14.7299
   8   2.0000      -0.415943       -11.3184
   9   2.0000      -0.381345       -10.3769
  10   2.0000      -0.363471        -9.8906
  11   2.0000      -0.229355        -6.2411
  12   2.0000      -0.198887        -5.4120
  13   0.0000       0.024054         0.6545
  14   0.0000       0.074819         2.0359
  15   0.0000       0.082523         2.2456
  16   0.0000       0.103875         2.8266
  17   0.0000       0.164035         4.4636

MULLIKEN ATOMIC CHARGES
-----------------------
   0 C :    0.275640
   1 O :   -0.495314
   2 N :   -0.161616
   3 H :    0.132697
   4 H :   -0.035824
   5 H :   -0.035838
   6 H :    0.187534
   7 H :    0.132721
Sum of atomic charges:   -0.0000000

LOEWDIN ATOMIC CHARGES
----------------------
   0 C :    0.129912
   1 O :   -0.409517
   2 N :    0.075152
   3 H :    0.079435
   4 H :   -0.024302
   5 H :   -0.024295
   6 H :    0.094124
   7 H :    0.079492

  Mayer bond orders larger than 0.100000
B(  0-C ,  1-O ) :   1.3865 B(  0-C ,  2-N ) :   0.8132 B(  0-C ,  4-H ) :   0.9043
B(  0-C ,  5-H ) :   0.9043 B(  1-O ,  6-H ) :   0.3980 B(  2-N ,  3-H ) :   0.9529
B(  2-N ,  6-H ) :   0.6371 B(  2-N ,  7-H ) :   0.9528

Dispersion correction           -0.006272863
FINAL SINGLE POINT ENERGY      -170.791571478077
Dispersion correction             ... done (  0.1 sec)

DIPOLE MOMENT
-------------

Method             : SCF
Type of density    : Electron Density
Multiplicity       :   1
Irrep              :   0
Energy             :  -170.7852986155259316 Eh
Basis              : AO
                                X                 Y                 Z
Electronic contribution:      0.340250502      -0.473954397      -1.373269151
Nuclear contribution   :     -1.668022515       1.253628980       2.675435217
                        -----------------------------------------
Total Dipole Moment    :     -1.327772013       0.779674582       1.302166066
                        -----------------------------------------
Magnitude (a.u.)       :      2.016558315
Magnitude (Debye)      :      5.125683892

Rotational constants in cm-1:             1.095564             0.368572             0.306653
Rotational constants in MHz :         32844.173382         11049.505953          9193.231847

                             ****ORCA TERMINATED NORMALLY****
TOTAL RUN TIME: 0 days 0 hours 0 minutes 7 seconds 257 msec
