                         Program Version 6.1.0  -  RELEASE   -
|  1> ! B3LYP def2-SVP d3 EnGrad
|  2> %pal nprocs 6 end
|  3> *xyz 0 1
|  4> C   -1.19287767713325 1.25989866811055 0.5889237529782
|  5> C   -0.76270155416334 0.28195502857966 -0.49271439787174
|  6> C   0.68851113281606 -0.22898869886455 -0.33303092472262
|  7> C   0.92861270155919 -0.99622520532402 0.96229927901371
|  8> O   1.6167400867493 0.82725397718922 -0.51407669799941
|  9> H   -0.50646231677746 2.11970435673136 0.63238072186223
| 10> H   -1.22176727977969 0.77089030005916 1.57484227347748
| 11> H   -2.20213412282824 1.63972612721308 0.371734497662
| 12> H   0.86092501821387 -0.32796971888333 1.83812031105831
| 13> H   1.9307443530021 -1.45065022158511 0.95961272198368
| 14> H   0.17280958901008 -1.78589774383467 1.08634128826483
| 15> H   1.63575580761175 1.34627200003772 0.30099858521333
| 16> H   -0.79426238492262 0.80894264966378 -1.46792409996888
| 17> H   -1.4935944954422 -1.3721076544134 -1.2259176020754
| 18> O   -1.68389825321891 -0.79781713720886 -0.47242220360036
| 19> H   0.87052039530335 -0.91525272747055 -1.18179850527538
| 20> *
| 21>
| 22>                          ****END OF INPUT****

CARTESIAN COORDINATES (ANGSTROEM)
---------------------------------
  C     -1.192878    1.259899    0.588924
  C     -0.762702    0.281955   -0.492714
  C      0.688511   -0.228989   -0.333031
  C      0.928613   -0.996225    0.962299
  O      1.616740    0.827254   -0.514077
  H     -0.506462    2.119704    0.632381
  H     -1.221767    0.770890    1.574842
  H     -2.202134    1.639726    0.371734
  H      0.860925   -0.327970    1.838120
  H      1.930744   -1.450650    0.959613
  H      0.172810   -1.785898    1.086341
  H      1.635756    1.346272    0.300999
  H     -0.794262    0.808943   -1.467924
  H     -1.493594   -1.372108   -1.225918
  O     -1.683898   -0.797817   -0.472422
  H      0.870520   -0.915253   -1.181799

 Total Charge           Charge          ....    0
 Multiplicity           Mult            ....    1
 Number of Electrons    NEL             ....   50
 Basis Dimension        Dim             ....  134

ORBITAL ENERGIES
----------------

  NO   OCC          E(Eh)            E(eV)
   0   2.0000     -19.127459      -520.4846
   1   2.0000     -19.126003      -520.4450
   2   2.0000     -10.229022      -278.3458
   3   2.0000     -10.227166      -278.2953
   4   2.0000     -10.177482      -276.9434
   5   2.0000     -10.177231      -276.9365
   6   2.0000      -1.012534       -27.5524
   7   2.0000      -0.999671       -27.2024
   8   2.0000      -0.761755       -20.7284
   9   2.0000      -0.717819       -19.5328
  10   2.0000      -0.641213       -17.4483
  11   2.0000      -0.573463       -15.6047
  12   2.0000      -0.513310       -13.9679
  13   2.0000      -0.495867       -13.4932
  14   2.0000      -0.464735       -12.6461
  15   2.0000      -0.435226       -11.8431
  16   2.0000      -0.402516       -10.9530
  17   2.0000      -0.390902       -10.6370
  18   2.0000      -0.381833       -10.3902
  19   2.0000      -0.362941        -9.8761
  20   2.0000      -0.358148        -9.7457
  21   2.0000      -0.347698        -9.4613
  22   2.0000      -0.310906        -8.4602
  23   2.0000      -0.293266        -7.9802
  24   2.0000      -0.251586        -6.8460
  25   0.0000       0.043837         1.1929
  26   0.0000       0.055255         1.5036
  27   0.0000       0.091670         2.4945
  28   0.0000       0.101689         2.7671
  29   0.0000       0.105843         2.8801

MULLIKEN ATOMIC CHARGES
-----------------------
   0 C :    0.016221
   1 C :    0.120566
   2 C :    0.103143
   3 C :    0.026086
   4 O :   -0.310969
   5 H :   -0.004346
   6 H :    0.015763
   7 H :    0.020858
   8 H :   -0.002377
   9 H :    0.018280
  10 H :    0.013441
  11 H :    0.159325
  12 H :   -0.012976
  13 H :    0.161114
  14 O :   -0.300704
  15 H :   -0.023427
Sum of atomic charges:   -0.0000000

LOEWDIN ATOMIC CHARGES
----------------------
   0 C :   -0.060597
   1 C :    0.045152
   2 C :    0.040891
   3 C :   -0.067917
   4 O :   -0.129741
   5 H :    0.019816
   6 H :    0.024336
   7 H :    0.031077
   8 H :    0.017659
   9 H :    0.026189
  10 H :    0.028013
  11 H :    0.067824
  12 H :    0.005431
  13 H :    0.073806
  14 O :   -0.133740
  15 H :    0.011801

  Mayer bond orders larger than 0.100000
B(  0-C ,  1-C ) :   1.0662 B(  0-C ,  5-H ) :   0.9579 B(  0-C ,  6-H ) :   0.9599
B(  0-C ,  7-H ) :   0.9586 B(  1-C ,  2-C ) :   0.9871 B(  1-C , 12-H ) :   0.9241
B(  1-C , 14-O ) :   1.0291 B(  2-C ,  3-C ) :   1.0748 B(  2-C ,  4-O ) :   1.0166
B(  2-C , 15-H ) :   0.9151 B(  3-C ,  8-H ) :   0.9557 B(  3-C ,  9-H ) :   0.9614
B(  3-C , 10-H ) :   0.9486 B(  4-O , 11-H ) :   0.9817 B( 13-H , 14-O ) :   0.9777

Dispersion correction           -0.020261659
FINAL SINGLE POINT ENERGY      -308.492808958925
Dispersion correction             ... done (  0.0 sec)

DIPOLE MOMENT
-------------

Method             : SCF
Type of density    : Electron Density
Multiplicity       :   1
Irrep              :   0
Energy             :  -308.4725473000877400 Eh
Basis              : AO
                                X                 Y                 Z
Electronic contribution:      0.141470251      -0.313816777      -3.020455732
Nuclear contribution   :     -0.086837994       0.248456858       3.129423002
                        -----------------------------------------
Total Dipole Moment    :      0.054632257      -0.065359920       0.108967270
                        -----------------------------------------
Magnitude (a.u.)       :      0.138312937
Magnitude (Debye)      :      0.351563546

Rotational constants in cm-1:             0.150105             0.091008             0.077677
Rotational constants in MHz :          4500.025358          2728.359231          2328.700712

                             ****ORCA TERMINATED NORMALLY****
TOTAL RUN TIME: 0 days 0 hours 0 minutes 17 seconds 613 msec
