                         Program Version 6.1.0  -  RELEASE   -
|  1> ! B3LYP def2-SVP d3 EnGrad
|  2> %pal nprocs 6 end
|  3> *xyz 0 1
|  4> C   1.90592406156366 0.50821970019177 -0.18312910959967
|  5> C   0.50269579099345 0.7844228248237 0.27902281655488
|  6> H   2.26748508013243 1.30927987194602 -0.85141215664285
|  7> H   1.96589648514866 -0.44847875092715 -0.72258004715192
|  8> H   2.60218835244601 0.46562676665206 0.67285900881834
|  9> C   -0.48103380120006 -0.08886728104963 0.09690681764449
| 10> O   -2.00499619820011 0.55290017672034 0.62848337688942
| 11> C   -0.91705448184768 -1.40035534902587 -0.17374882243627
| 12> H   -0.34430658164555 -2.21954158598509 0.27793409060535
| 13> H   -1.28140118021308 -1.61010813423885 -1.19041516501377
| 14> H   -2.0964388241798 -0.58652405430602 0.487479794884
| 15> H   -2.42423687894303 1.00951018409686 -0.12408974221531
| 16> H   0.3052781759451 1.72391563110186 0.80268913766332
| 17> *
| 18>
| 19>                          ****END OF INPUT****

CARTESIAN COORDINATES (ANGSTROEM)
---------------------------------
  C      1.905924    0.508220   -0.183129
  C      0.502696    0.784423    0.279023
  H      2.267485    1.309280   -0.851412
  H      1.965896   -0.448479   -0.722580
  H      2.602188    0.465627    0.672859
  C     -0.481034   -0.088867    0.096907
  O     -2.004996    0.552900    0.628483
  C     -0.917054   -1.400355   -0.173749
  H     -0.344307   -2.219542    0.277934
  H     -1.281401   -1.610108   -1.190415
  H     -2.096439   -0.586524    0.487480
  H     -2.424237    1.009510   -0.124090
  H      0.305278    1.723916    0.802689

 Total Charge           Charge          ....    0
 Multiplicity           Mult            ....    1
 Number of Electrons    NEL             ....   40
 Basis Dimension        Dim             ....  110

ORBITAL ENERGIES
----------------

  NO   OCC          E(Eh)            E(eV)
   0   2.0000     -19.166732      -521.5533
   1   2.0000     -10.241944      -278.6975
   2   2.0000     -10.190492      -277.2974
   3   2.0000     -10.188410      -277.2407
   4   2.0000     -10.142525      -275.9921
   5   2.0000      -1.017689       -27.6927
   6   2.0000      -0.789197       -21.4751
   7   2.0000      -0.712999       -19.4017
   8   2.0000      -0.643027       -17.4976
   9   2.0000      -0.546585       -14.8733
  10   2.0000      -0.499251       -13.5853
  11   2.0000      -0.447078       -12.1656
  12   2.0000      -0.436432       -11.8759
  13   2.0000      -0.417058       -11.3487
  14   2.0000      -0.400255       -10.8915
  15   2.0000      -0.379108       -10.3161
  16   2.0000      -0.371605       -10.1119
  17   2.0000      -0.350780        -9.5452
  18   2.0000      -0.258128        -7.0240
  19   2.0000      -0.196532        -5.3479
  20   0.0000       0.015861         0.4316
  21   0.0000       0.021854         0.5947
  22   0.0000       0.046883         1.2758
  23   0.0000       0.084244         2.2924
  24   0.0000       0.113397         3.0857

MULLIKEN ATOMIC CHARGES
-----------------------
   0 C :    0.061686
   1 C :   -0.131287
   2 H :    0.020559
   3 H :    0.020491
   4 H :    0.025734
   5 C :    0.077245
   6 O :   -0.246448
   7 C :   -0.250920
   8 H :    0.031204
   9 H :    0.022826
  10 H :    0.183865
  11 H :    0.171951
  12 H :    0.013094
Sum of atomic charges:    0.0000000

LOEWDIN ATOMIC CHARGES
----------------------
   0 C :   -0.044658
   1 C :   -0.078555
   2 H :    0.031388
   3 H :    0.031782
   4 H :    0.033430
   5 C :    0.114650
   6 O :   -0.048142
   7 C :   -0.290845
   8 H :    0.024645
   9 H :    0.021879
  10 H :    0.088157
  11 H :    0.082997
  12 H :    0.033271

  Mayer bond orders larger than 0.100000
B(  0-C ,  1-C ) :   1.0688 B(  0-C ,  2-H ) :   0.9544 B(  0-C ,  3-H ) :   0.9650
B(  0-C ,  4-H ) :   0.9539 B(  1-C ,  5-C ) :   1.8780 B(  1-C , 12-H ) :   0.9272
B(  5-C ,  6-O ) :   0.5576 B(  5-C ,  7-C ) :   1.3279 B(  6-O , 10-H ) :   0.6158
B(  6-O , 11-H ) :   0.9683 B(  7-C ,  8-H ) :   0.9531 B(  7-C ,  9-H ) :   0.9281
B(  7-C , 10-H ) :   0.3931

Dispersion correction           -0.014894292
FINAL SINGLE POINT ENERGY      -232.017308238485
Dispersion correction             ... done (  0.0 sec)

DIPOLE MOMENT
-------------

Method             : SCF
Type of density    : Electron Density
Multiplicity       :   1
Irrep              :   0
Energy             :  -232.0024139467582245 Eh
Basis              : AO
                                X                 Y                 Z
Electronic contribution:     -2.875063349       1.591369709       1.213116004
Nuclear contribution   :      2.878419234      -0.964962010      -1.602668849
                        -----------------------------------------
Total Dipole Moment    :      0.003355886       0.626407700      -0.389552846
                        -----------------------------------------
Magnitude (a.u.)       :      0.737664753
Magnitude (Debye)      :      1.874994794

Rotational constants in cm-1:             0.296405             0.106814             0.081637
Rotational constants in MHz :          8885.991178          3202.214186          2447.418025

                             ****ORCA TERMINATED NORMALLY****
TOTAL RUN TIME: 0 days 0 hours 0 minutes 13 seconds 564 msec
