                         Program Version 6.1.0  -  RELEASE   -
|  1> ! B3LYP def2-SVP d3 EnGrad
|  2> %pal nprocs 6 end
|  3> *xyz 0 1
|  4> C   3.01713964927272 -0.53365619993542 0.80341105598917
|  5> C   1.73813678709075 -0.21399887754608 0.08176538366431
|  6> H   3.56227431541101 0.37482435153204 1.08830702211726
|  7> H   3.64629301685126 -1.15268740762456 0.14516683095231
|  8> H   2.77916013846386 -1.13063410928595 1.6961365412436
|  9> O   1.62638776365204 1.11083150536341 -0.13497350478586
| 10> O   0.43594113275562 1.44714203536649 -0.84754126721411
| 11> H   -0.04137040828607 0.58029695943577 -0.89198898706001
| 12> O   0.89446027496371 -1.00068248634796 -0.27976839437375
| 13> C   -2.50861220695243 0.73646868189384 -0.81432227508013
| 14> C   -2.35799067784321 -0.58462535729427 -1.00695800096861
| 15> C   -2.31413396825635 -1.6650377239908 0.03215955844094
| 16> H   -2.24850867966866 -0.92953105096455 -2.04317995315285
| 17> H   -2.50464443364131 -1.28844340561266 1.04757786413623
| 18> H   -1.32384468506374 -2.14962818744825 0.03251134648585
| 19> H   -3.06103639103371 -2.44783141769054 -0.18626135813422
| 20> C   -2.65227121669001 1.46370704275768 0.49050261049679
| 21> H   -2.5099781769455 1.37660461341459 -1.70579224711089
| 22> H   -2.72498759987837 0.78561341309722 1.35300116639914
| 23> H   -3.54854203978849 2.10775176062742 0.48680285665206
| 24> H   -1.78290359441309 2.12498586025257 0.64941575130279
| 25> *
| 26>
| 27>                          ****END OF INPUT****

CARTESIAN COORDINATES (ANGSTROEM)
---------------------------------
  C      3.017140   -0.533656    0.803411
  C      1.738137   -0.213999    0.081765
  H      3.562274    0.374824    1.088307
  H      3.646293   -1.152687    0.145167
  H      2.779160   -1.130634    1.696137
  O      1.626388    1.110832   -0.134974
  O      0.435941    1.447142   -0.847541
  H     -0.041370    0.580297   -0.891989
  O      0.894460   -1.000682   -0.279768
  C     -2.508612    0.736469   -0.814322
  C     -2.357991   -0.584625   -1.006958
  C     -2.314134   -1.665038    0.032160
  H     -2.248509   -0.929531   -2.043180
  H     -2.504644   -1.288443    1.047578
  H     -1.323845   -2.149628    0.032511
  H     -3.061036   -2.447831   -0.186261
  C     -2.652271    1.463707    0.490503
  H     -2.509978    1.376605   -1.705792
  H     -2.724988    0.785613    1.353001
  H     -3.548542    2.107752    0.486803
  H     -1.782904    2.124986    0.649416

 Total Charge           Charge          ....    0
 Multiplicity           Mult            ....    1
 Number of Electrons    NEL             ....   72
 Basis Dimension        Dim             ....  186

ORBITAL ENERGIES
----------------

  NO   OCC          E(Eh)            E(eV)
   0   2.0000     -19.232663      -523.3474
   1   2.0000     -19.192216      -522.2468
   2   2.0000     -19.142519      -520.8944
   3   2.0000     -10.330798      -281.1153
   4   2.0000     -10.216559      -278.0067
   5   2.0000     -10.179831      -277.0073
   6   2.0000     -10.178956      -276.9835
   7   2.0000     -10.175922      -276.9009
   8   2.0000     -10.173084      -276.8237
   9   2.0000      -1.163596       -31.6631
  10   2.0000      -1.045126       -28.4393
  11   2.0000      -0.924593       -25.1595
  12   2.0000      -0.782688       -21.2980
  13   2.0000      -0.753387       -20.5007
  14   2.0000      -0.707104       -19.2413
  15   2.0000      -0.640657       -17.4332
  16   2.0000      -0.623088       -16.9551
  17   2.0000      -0.519119       -14.1260
  18   2.0000      -0.512880       -13.9562
  19   2.0000      -0.498629       -13.5684
  20   2.0000      -0.496709       -13.5161
  21   2.0000      -0.470315       -12.7979
  22   2.0000      -0.433541       -11.7973
  23   2.0000      -0.427316       -11.6278
  24   2.0000      -0.413942       -11.2639
  25   2.0000      -0.409292       -11.1374
  26   2.0000      -0.406207       -11.0534
  27   2.0000      -0.392513       -10.6808
  28   2.0000      -0.389293       -10.5932
  29   2.0000      -0.375183       -10.2092
  30   2.0000      -0.364237        -9.9114
  31   2.0000      -0.355470        -9.6728
  32   2.0000      -0.327134        -8.9018
  33   2.0000      -0.306236        -8.3331
  34   2.0000      -0.278757        -7.5854
  35   2.0000      -0.240525        -6.5450
  36   0.0000      -0.007544        -0.2053
  37   0.0000       0.012586         0.3425
  38   0.0000       0.030041         0.8175
  39   0.0000       0.060045         1.6339
  40   0.0000       0.075972         2.0673

MULLIKEN ATOMIC CHARGES
-----------------------
   0 C :    0.035923
   1 C :    0.138562
   2 H :    0.046101
   3 H :    0.060293
   4 H :    0.056851
   5 O :   -0.146939
   6 O :   -0.140589
   7 H :    0.202748
   8 O :   -0.246654
   9 C :   -0.133470
  10 C :   -0.108015
  11 C :    0.069888
  12 H :   -0.003629
  13 H :   -0.000799
  14 H :    0.037285
  15 H :    0.013520
  16 C :    0.073936
  17 H :    0.000335
  18 H :    0.002584
  19 H :    0.016496
  20 H :    0.025575
Sum of atomic charges:   -0.0000000

LOEWDIN ATOMIC CHARGES
----------------------
   0 C :   -0.065208
   1 C :    0.070405
   2 H :    0.043287
   3 H :    0.056344
   4 H :    0.053903
   5 O :   -0.005364
   6 O :   -0.032612
   7 H :    0.057687
   8 O :   -0.177727
   9 C :   -0.053734
  10 C :   -0.047046
  11 C :   -0.060865
  12 H :    0.023350
  13 H :    0.022371
  14 H :    0.035391
  15 H :    0.030097
  16 C :   -0.060655
  17 H :    0.023831
  18 H :    0.023044
  19 H :    0.031273
  20 H :    0.032228

  Mayer bond orders larger than 0.100000
B(  0-C ,  1-C ) :   1.0457 B(  0-C ,  2-H ) :   0.9534 B(  0-C ,  3-H ) :   0.9460
B(  0-C ,  4-H ) :   0.9493 B(  1-C ,  5-O ) :   1.1564 B(  1-C ,  8-O ) :   1.9854
B(  5-O ,  6-O ) :   0.9251 B(  6-O ,  7-H ) :   0.8905 B(  9-C , 10-C ) :   1.9250
B(  9-C , 16-C ) :   1.0855 B(  9-C , 17-H ) :   0.9518 B( 10-C , 11-C ) :   1.0896
B( 10-C , 12-H ) :   0.9515 B( 11-C , 13-H ) :   0.9590 B( 11-C , 14-H ) :   0.9422
B( 11-C , 15-H ) :   0.9493 B( 16-C , 18-H ) :   0.9596 B( 16-C , 19-H ) :   0.9507
B( 16-C , 20-H ) :   0.9446

Dispersion correction           -0.026448610
FINAL SINGLE POINT ENERGY      -460.860870582542
Dispersion correction             ... done (  0.0 sec)

DIPOLE MOMENT
-------------

Method             : SCF
Type of density    : Electron Density
Multiplicity       :   1
Irrep              :   0
Energy             :  -460.8344219721456625 Eh
Basis              : AO
                                X                 Y                 Z
Electronic contribution:      7.694145192       2.394914146      -3.056271548
Nuclear contribution   :     -7.099680739      -2.778749803       3.557393616
                        -----------------------------------------
Total Dipole Moment    :      0.594464453      -0.383835657       0.501122068
                        -----------------------------------------
Magnitude (a.u.)       :      0.867087726
Magnitude (Debye)      :      2.203961848

Rotational constants in cm-1:             0.077357             0.026683             0.022350
Rotational constants in MHz :          2319.108072           799.922167           670.022278

                             ****ORCA TERMINATED NORMALLY****
TOTAL RUN TIME: 0 days 0 hours 0 minutes 29 seconds 823 msec
