                         Program Version 6.1.0  -  RELEASE   -
|  1> ! B3LYP def2-SVP d3 EnGrad
|  2> %pal nprocs 6 end
|  3> *xyz 0 1
|  4> N   1.4012840718485 -0.81558974206727 0.16099278282187
|  5> B   1.8701047561803 0.70950589856027 -0.21591386526631
|  6> B   -2.31264938295241 -0.35723240724579 -0.25982697096588
|  7> N   -1.38995954238525 0.57106549063452 0.21585670552968
|  8> H   0.39757574059296 -0.82022488795267 0.38367203777961
|  9> H   1.91237141083892 -1.17501280525686 0.97012105257741
| 10> H   1.55416493609209 -1.46290390014296 -0.61606708122601
| 11> H   1.6487948293582 1.37697401838899 0.78696650280623
| 12> H   3.05461836728958 0.64961462325711 -0.50714195231469
| 13> H   1.16802806205016 1.03923958537667 -1.16886872058797
| 14> H   -2.19027607232365 -0.77589757105363 -1.38718148440437
| 15> H   -3.1925906564713 -0.74822247405326 0.46961404812867
| 16> H   -1.45308200121883 0.99395035434236 1.13673459633975
| 17> H   -0.64995751889929 0.98736681721252 -0.351340651218
| 18> *
| 19>
| 20>                          ****END OF INPUT****

CARTESIAN COORDINATES (ANGSTROEM)
---------------------------------
  N      1.401284   -0.815590    0.160993
  B      1.870105    0.709506   -0.215914
  B     -2.312649   -0.357232   -0.259827
  N     -1.389960    0.571065    0.215857
  H      0.397576   -0.820225    0.383672
  H      1.912371   -1.175013    0.970121
  H      1.554165   -1.462904   -0.616067
  H      1.648795    1.376974    0.786967
  H      3.054618    0.649615   -0.507142
  H      1.168028    1.039240   -1.168869
  H     -2.190276   -0.775898   -1.387181
  H     -3.192591   -0.748222    0.469614
  H     -1.453082    0.993950    1.136735
  H     -0.649958    0.987367   -0.351341

 Total Charge           Charge          ....    0
 Multiplicity           Mult            ....    1
 Number of Electrons    NEL             ....   34
 Basis Dimension        Dim             ....  106

ORBITAL ENERGIES
----------------

  NO   OCC          E(Eh)            E(eV)
   0   2.0000     -14.405475      -391.9929
   1   2.0000     -14.337142      -390.1335
   2   2.0000      -6.751982      -183.7308
   3   2.0000      -6.697659      -182.2526
   4   2.0000      -0.935876       -25.4665
   5   2.0000      -0.861710       -23.4483
   6   2.0000      -0.550394       -14.9770
   7   2.0000      -0.547538       -14.8993
   8   2.0000      -0.528562       -14.3829
   9   2.0000      -0.515997       -14.0410
  10   2.0000      -0.503775       -13.7084
  11   2.0000      -0.395723       -10.7682
  12   2.0000      -0.358562        -9.7570
  13   2.0000      -0.322457        -8.7745
  14   2.0000      -0.312433        -8.5017
  15   2.0000      -0.279967        -7.6183
  16   2.0000      -0.277660        -7.5555
  17   0.0000      -0.002881        -0.0784
  18   0.0000       0.015759         0.4288
  19   0.0000       0.065998         1.7959
  20   0.0000       0.083568         2.2740
  21   0.0000       0.113086         3.0772

MULLIKEN ATOMIC CHARGES
-----------------------
   0 N :    0.025420
   1 B :   -0.189170
   2 B :   -0.067963
   3 N :   -0.084770
   4 H :    0.120028
   5 H :    0.145778
   6 H :    0.147442
   7 H :   -0.100223
   8 H :   -0.072710
   9 H :   -0.105974
  10 H :   -0.046741
  11 H :   -0.044294
  12 H :    0.126060
  13 H :    0.147116
Sum of atomic charges:   -0.0000000

LOEWDIN ATOMIC CHARGES
----------------------
   0 N :    0.224208
   1 B :   -0.375460
   2 B :   -0.129062
   3 N :    0.063743
   4 H :    0.090592
   5 H :    0.106494
   6 H :    0.107481
   7 H :   -0.060408
   8 H :   -0.053350
   9 H :   -0.061366
  10 H :   -0.044537
  11 H :   -0.045355
  12 H :    0.085733
  13 H :    0.091287

  Mayer bond orders larger than 0.100000
B(  0-N ,  1-B ) :   0.7853 B(  0-N ,  4-H ) :   0.9346 B(  0-N ,  5-H ) :   0.9657
B(  0-N ,  6-H ) :   0.9669 B(  1-B ,  7-H ) :   0.9731 B(  1-B ,  8-H ) :   0.9745
B(  1-B ,  9-H ) :   0.9284 B(  2-B ,  3-N ) :   1.5619 B(  2-B , 10-H ) :   0.9690
B(  2-B , 11-H ) :   0.9698 B(  3-N , 12-H ) :   0.9560 B(  3-N , 13-H ) :   0.9186

Dispersion correction           -0.013251111
FINAL SINGLE POINT ENERGY      -165.039352157186
Dispersion correction             ... done (  0.0 sec)

DIPOLE MOMENT
-------------

Method             : SCF
Type of density    : Electron Density
Multiplicity       :   1
Irrep              :   0
Energy             :  -165.0261010464840297 Eh
Basis              : AO
                                X                 Y                 Z
Electronic contribution:     -2.881750460      -1.089974456       0.643494607
Nuclear contribution   :      2.756336923      -0.265969212       0.115557562
                        -----------------------------------------
Total Dipole Moment    :     -0.125413537      -1.355943668       0.759052169
                        -----------------------------------------
Magnitude (a.u.)       :      1.558997108
Magnitude (Debye)      :      3.962655730

Rotational constants in cm-1:             0.410441             0.085510             0.076951
Rotational constants in MHz :         12304.699434          2563.511160          2306.934948

                             ****ORCA TERMINATED NORMALLY****
TOTAL RUN TIME: 0 days 0 hours 0 minutes 12 seconds 491 msec
