                         Program Version 6.1.0  -  RELEASE   -
|  1> ! B3LYP def2-SVP d3 EnGrad
|  2> %pal nprocs 6 end
|  3> *xyz 0 1
|  4> C   0.60352936857144 1.32596444521731 -2.04365420701538
|  5> C   0.5740709825596 0.43366516582396 -0.84447526742683
|  6> C   0.88521033517697 0.81694490243707 0.40357081202624
|  7> C   0.81515057476469 -0.05893636815815 1.62846422567335
|  8> O   -0.15820741389699 -1.08834534204138 1.58757435368029
|  9> Cl   -0.60732860086083 -2.8539975872347 -0.43915545680552
| 10> S   -2.06918037658237 -0.39936106423812 0.75668434253646
| 11> O   -2.61342845635193 -0.37095532856687 -0.59310625978918
| 12> Cl   -3.08389314969646 -1.8267302982267 1.91637329646847
| 13> H   -0.40271657156502 1.38995649294197 -2.49420139359874
| 14> H   1.26147224134656 0.90543007868323 -2.82360068422236
| 15> H   0.9465776239698 2.34450329154703 -1.80452412327473
| 16> H   0.26347496250819 -0.6048519371479 -1.02323343006525
| 17> H   1.2360505983563 1.84058214092892 0.5882908389831
| 18> H   1.79306648718124 -0.54737844951985 1.81776613993848
| 19> H   0.60172038155038 0.55430604459048 2.52059428118796
| 20> H   -0.04556898703158 -1.86079618703631 0.84663253170364
| 21> *
| 22>
| 23>                          ****END OF INPUT****

CARTESIAN COORDINATES (ANGSTROEM)
---------------------------------
  C      0.603529    1.325964   -2.043654
  C      0.574071    0.433665   -0.844475
  C      0.885210    0.816945    0.403571
  C      0.815151   -0.058936    1.628464
  O     -0.158207   -1.088345    1.587574
  Cl    -0.607329   -2.853998   -0.439155
  S     -2.069180   -0.399361    0.756684
  O     -2.613428   -0.370955   -0.593106
  Cl    -3.083893   -1.826730    1.916373
  H     -0.402717    1.389956   -2.494201
  H      1.261472    0.905430   -2.823601
  H      0.946578    2.344503   -1.804524
  H      0.263475   -0.604852   -1.023233
  H      1.236051    1.840582    0.588291
  H      1.793066   -0.547378    1.817766
  H      0.601720    0.554306    2.520594
  H     -0.045569   -1.860796    0.846633

 Total Charge           Charge          ....    0
 Multiplicity           Mult            ....    1
 Number of Electrons    NEL             ....   98
 Basis Dimension        Dim             ....  178

ORBITAL ENERGIES
----------------

  NO   OCC          E(Eh)            E(eV)
   0   2.0000    -101.539447     -2763.0288
   1   2.0000    -101.402247     -2759.2954
   2   2.0000     -89.066727     -2423.6289
   3   2.0000     -19.219991      -523.0025
   4   2.0000     -19.190618      -522.2033
   5   2.0000     -10.270263      -279.4681
   6   2.0000     -10.206791      -277.7409
   7   2.0000     -10.204081      -277.6672
   8   2.0000     -10.195587      -277.4360
   9   2.0000      -9.494523      -258.3591
  10   2.0000      -9.355459      -254.5750
  11   2.0000      -8.144427      -221.6211
  12   2.0000      -7.263383      -197.6467
  13   2.0000      -7.253843      -197.3871
  14   2.0000      -7.253157      -197.3684
  15   2.0000      -7.120202      -193.7506
  16   2.0000      -7.117727      -193.6832
  17   2.0000      -7.116442      -193.6482
  18   2.0000      -6.112719      -166.3356
  19   2.0000      -6.111383      -166.2992
  20   2.0000      -6.105189      -166.1307
  21   2.0000      -1.125761       -30.6335
  22   2.0000      -1.047540       -28.5050
  23   2.0000      -0.876672       -23.8555
  24   2.0000      -0.806683       -21.9510
  25   2.0000      -0.743434       -20.2299
  26   2.0000      -0.712084       -19.3768
  27   2.0000      -0.699506       -19.0345
  28   2.0000      -0.656627       -17.8677
  29   2.0000      -0.568186       -15.4611
  30   2.0000      -0.535805       -14.5800
  31   2.0000      -0.519926       -14.1479
  32   2.0000      -0.512345       -13.9416
  33   2.0000      -0.489460       -13.3189
  34   2.0000      -0.484049       -13.1716
  35   2.0000      -0.461571       -12.5600
  36   2.0000      -0.424704       -11.5568
  37   2.0000      -0.421277       -11.4635
  38   2.0000      -0.404973       -11.0199
  39   2.0000      -0.383815       -10.4441
  40   2.0000      -0.370199       -10.0736
  41   2.0000      -0.361724        -9.8430
  42   2.0000      -0.356140        -9.6910
  43   2.0000      -0.346815        -9.4373
  44   2.0000      -0.317049        -8.6274
  45   2.0000      -0.270075        -7.3491
  46   2.0000      -0.255322        -6.9477
  47   2.0000      -0.241043        -6.5591
  48   2.0000      -0.237039        -6.4502
  49   0.0000      -0.168013        -4.5719
  50   0.0000      -0.100713        -2.7405
  51   0.0000      -0.013381        -0.3641
  52   0.0000       0.022189         0.6038
  53   0.0000       0.055680         1.5151

MULLIKEN ATOMIC CHARGES
-----------------------
   0 C :    0.061313
   1 C :   -0.101776
   2 C :   -0.150291
   3 C :    0.271833
   4 O :   -0.360695
   5 Cl:   -0.461369
   6 S :    0.715077
   7 O :   -0.275166
   8 Cl:   -0.088760
   9 H :    0.035261
  10 H :    0.036642
  11 H :    0.009877
  12 H :    0.010439
  13 H :    0.002988
  14 H :    0.058658
  15 H :    0.019964
  16 H :    0.216005
Sum of atomic charges:    0.0000000

LOEWDIN ATOMIC CHARGES
----------------------
   0 C :   -0.050204
   1 C :   -0.022720
   2 C :   -0.094975
   3 C :    0.067967
   4 O :   -0.125626
   5 Cl:   -0.383123
   6 S :    0.809784
   7 O :   -0.328412
   8 Cl:   -0.062777
   9 H :    0.040466
  10 H :    0.041532
  11 H :    0.025597
  12 H :    0.004762
  13 H :    0.025298
  14 H :    0.047287
  15 H :    0.024404
  16 H :   -0.019260

  Mayer bond orders larger than 0.100000
B(  0-C ,  1-C ) :   1.0936 B(  0-C ,  9-H ) :   0.9485 B(  0-C , 10-H ) :   0.9474
B(  0-C , 11-H ) :   0.9672 B(  1-C ,  2-C ) :   1.8650 B(  1-C , 12-H ) :   0.9237
B(  2-C ,  3-C ) :   1.0149 B(  2-C , 13-H ) :   0.9494 B(  3-C ,  4-O ) :   0.9716
B(  3-C , 14-H ) :   0.9202 B(  3-C , 15-H ) :   0.9472 B(  4-O ,  6-S ) :   0.3719
B(  4-O ,  7-O ) :   0.1112 B(  4-O , 16-H ) :   0.6526 B(  5-Cl,  6-S ) :   0.2152
B(  5-Cl, 12-H ) :   0.1552 B(  5-Cl, 16-H ) :   0.4070 B(  6-S ,  7-O ) :   1.7757
B(  6-S ,  8-Cl) :   0.9636 B(  7-O ,  8-Cl) :   0.1846

Dispersion correction           -0.034571705
FINAL SINGLE POINT ENERGY     -1625.218530181577
Dispersion correction             ... done (  0.0 sec)

DIPOLE MOMENT
-------------

Method             : SCF
Type of density    : Electron Density
Multiplicity       :   1
Irrep              :   0
Energy             : -1625.1839584769247722 Eh
Basis              : AO
                                X                 Y                 Z
Electronic contribution:    -15.076747541     -12.175604336       7.255825028
Nuclear contribution   :     15.357030680      14.280052209      -6.230975971
                        -----------------------------------------
Total Dipole Moment    :      0.280283139       2.104447873       1.024849057
                        -----------------------------------------
Magnitude (a.u.)       :      2.357450970
Magnitude (Debye)      :      5.992164161

Rotational constants in cm-1:             0.040070             0.020691             0.019851
Rotational constants in MHz :          1201.267984           620.298611           595.106492

                             ****ORCA TERMINATED NORMALLY****
TOTAL RUN TIME: 0 days 0 hours 0 minutes 31 seconds 738 msec
