                         Program Version 6.1.0  -  RELEASE   -
|  1> ! B3LYP def2-SVP d3 EnGrad
|  2> %pal nprocs 6 end
|  3> *xyz 0 1
|  4> N   0.48870741214629 1.53135193347884 0.53655274791466
|  5> B   1.68105797076397 0.93269663368309 0.14649554080511
|  6> N   -0.75734878240519 -1.68509215493817 -0.57486941385011
|  7> B   -1.46316755756389 -0.63234454206785 -0.04199567010202
|  8> H   0.25060873923772 -1.63281926278549 -0.70721319699049
|  9> H   2.78270932993287 1.44975642739555 0.18925564628246
| 10> H   1.63174239465303 -0.2217869149884 -0.28214611372993
| 11> H   -0.71721039979246 0.63428629997992 -0.12550401484343
| 12> H   0.5496040608525 2.48946005211566 0.89004307034383
| 13> H   -1.18330606369488 -2.56234622065793 -0.86098299807798
| 14> H   -2.6486265886103 -0.62709441541752 0.14293033670902
| 15> H   -0.61477051551964 0.32393216420233 0.68743406553888
| 16> *
| 17>
| 18>                          ****END OF INPUT****

CARTESIAN COORDINATES (ANGSTROEM)
---------------------------------
  N      0.488707    1.531352    0.536553
  B      1.681058    0.932697    0.146496
  N     -0.757349   -1.685092   -0.574869
  B     -1.463168   -0.632345   -0.041996
  H      0.250609   -1.632819   -0.707213
  H      2.782709    1.449756    0.189256
  H      1.631742   -0.221787   -0.282146
  H     -0.717210    0.634286   -0.125504
  H      0.549604    2.489460    0.890043
  H     -1.183306   -2.562346   -0.860983
  H     -2.648627   -0.627094    0.142930
  H     -0.614771    0.323932    0.687434

 Total Charge           Charge          ....    0
 Multiplicity           Mult            ....    1
 Number of Electrons    NEL             ....   32
 Basis Dimension        Dim             ....   96

ORBITAL ENERGIES
----------------

  NO   OCC          E(Eh)            E(eV)
   0   2.0000     -14.371091      -391.0573
   1   2.0000     -14.254698      -387.8901
   2   2.0000      -6.794394      -184.8848
   3   2.0000      -6.709239      -182.5677
   4   2.0000      -0.895497       -24.3677
   5   2.0000      -0.770935       -20.9782
   6   2.0000      -0.602353       -16.3909
   7   2.0000      -0.546572       -14.8730
   8   2.0000      -0.508894       -13.8477
   9   2.0000      -0.455733       -12.4011
  10   2.0000      -0.403792       -10.9877
  11   2.0000      -0.359493        -9.7823
  12   2.0000      -0.345566        -9.4033
  13   2.0000      -0.303020        -8.2456
  14   2.0000      -0.251071        -6.8320
  15   2.0000      -0.216687        -5.8963
  16   0.0000      -0.069228        -1.8838
  17   0.0000       0.038866         1.0576
  18   0.0000       0.044041         1.1984
  19   0.0000       0.082308         2.2397
  20   0.0000       0.104129         2.8335

MULLIKEN ATOMIC CHARGES
-----------------------
   0 N :   -0.307213
   1 B :   -0.087663
   2 N :    0.000171
   3 B :   -0.206148
   4 H :    0.144920
   5 H :   -0.068288
   6 H :   -0.134161
   7 H :    0.210463
   8 H :    0.091278
   9 H :    0.134662
  10 H :    0.009624
  11 H :    0.212356
Sum of atomic charges:    0.0000000

LOEWDIN ATOMIC CHARGES
----------------------
   0 N :   -0.218806
   1 B :   -0.208605
   2 N :    0.105614
   3 B :   -0.102300
   4 H :    0.092998
   5 H :   -0.061130
   6 H :   -0.080260
   7 H :    0.177613
   8 H :    0.052480
   9 H :    0.095308
  10 H :   -0.030310
  11 H :    0.177397

  Mayer bond orders larger than 0.100000
B(  0-N ,  1-B ) :   1.6638 B(  0-N ,  3-B ) :   0.1182 B(  0-N ,  7-H ) :   0.2476
B(  0-N ,  8-H ) :   0.9356 B(  0-N , 11-H ) :   0.2468 B(  1-B ,  5-H ) :   0.9538
B(  1-B ,  6-H ) :   0.8945 B(  2-N ,  3-B ) :   1.6910 B(  2-N ,  4-H ) :   0.9302
B(  2-N ,  9-H ) :   0.9473 B(  3-B ,  7-H ) :   0.3645 B(  3-B , 10-H ) :   0.9548
B(  3-B , 11-H ) :   0.3648 B(  7-H , 11-H ) :   0.3292

Dispersion correction           -0.011885956
FINAL SINGLE POINT ENERGY      -163.719320597601
Dispersion correction             ... done (  0.0 sec)

DIPOLE MOMENT
-------------

Method             : SCF
Type of density    : Electron Density
Multiplicity       :   1
Irrep              :   0
Energy             :  -163.7074346420859285 Eh
Basis              : AO
                                X                 Y                 Z
Electronic contribution:     -1.179409795      -0.713544345      -0.131794310
Nuclear contribution   :      0.022558954      -0.463859867      -0.196065926
                        -----------------------------------------
Total Dipole Moment    :     -1.156850841      -1.177404212      -0.327860237
                        -----------------------------------------
Magnitude (a.u.)       :      1.682877560
Magnitude (Debye)      :      4.277534816

Rotational constants in cm-1:             0.489224             0.100488             0.083689
Rotational constants in MHz :         14666.567095          3012.545684          2508.918168

                             ****ORCA TERMINATED NORMALLY****
TOTAL RUN TIME: 0 days 0 hours 0 minutes 10 seconds 968 msec
