                         Program Version 6.1.0  -  RELEASE   -
|  1> ! B3LYP def2-SVP d3 EnGrad
|  2> %pal nprocs 6 end
|  3> *xyz 0 1
|  4> C   1.24095990591836 -0.55418617839335 0.04195777804039
|  5> O   1.25085461537005 -0.76564294124569 1.31981418532617
|  6> C   -1.11442918433374 0.6528115364498 -0.28397020109058
|  7> O   -0.44555392074603 -0.57861599966402 -0.04451475041756
|  8> H   1.50353073831095 0.45208629751977 -0.36453974327124
|  9> H   1.51304377743916 -1.36715537621648 -0.66655598650607
| 10> H   -0.65650022054256 1.47908059191538 0.29030842742179
| 11> H   -1.08029593810225 0.88904325401008 -1.35851462894422
| 12> H   -0.04398377053174 -0.75105443222268 1.04872359782957
| 13> H   -2.16762600278221 0.5436332478472 0.01729132161178
| 14> *
| 15>
| 16>                          ****END OF INPUT****

CARTESIAN COORDINATES (ANGSTROEM)
---------------------------------
  C      1.240960   -0.554186    0.041958
  O      1.250855   -0.765643    1.319814
  C     -1.114429    0.652812   -0.283970
  O     -0.445554   -0.578616   -0.044515
  H      1.503531    0.452086   -0.364540
  H      1.513044   -1.367155   -0.666556
  H     -0.656500    1.479081    0.290308
  H     -1.080296    0.889043   -1.358515
  H     -0.043984   -0.751054    1.048724
  H     -2.167626    0.543633    0.017291

 Total Charge           Charge          ....    0
 Multiplicity           Mult            ....    1
 Number of Electrons    NEL             ....   34
 Basis Dimension        Dim             ....   86

ORBITAL ENERGIES
----------------

  NO   OCC          E(Eh)            E(eV)
   0   2.0000     -19.174947      -521.7768
   1   2.0000     -19.081414      -519.2317
   2   2.0000     -10.289338      -279.9871
   3   2.0000     -10.254555      -279.0406
   4   2.0000      -1.064212       -28.9587
   5   2.0000      -0.964496       -26.2453
   6   2.0000      -0.700101       -19.0507
   7   2.0000      -0.630584       -17.1591
   8   2.0000      -0.538438       -14.6516
   9   2.0000      -0.492041       -13.3891
  10   2.0000      -0.473374       -12.8812
  11   2.0000      -0.435285       -11.8447
  12   2.0000      -0.408570       -11.1178
  13   2.0000      -0.367373        -9.9967
  14   2.0000      -0.357901        -9.7390
  15   2.0000      -0.269819        -7.3421
  16   2.0000      -0.238027        -6.4771
  17   0.0000       0.024301         0.6613
  18   0.0000       0.052435         1.4268
  19   0.0000       0.094999         2.5851
  20   0.0000       0.103610         2.8194
  21   0.0000       0.114289         3.1100

MULLIKEN ATOMIC CHARGES
-----------------------
   0 C :    0.327943
   1 O :   -0.424946
   2 C :    0.154348
   3 O :   -0.384998
   4 H :   -0.012066
   5 H :    0.005627
   6 H :    0.027709
   7 H :    0.037161
   8 H :    0.228282
   9 H :    0.040941
Sum of atomic charges:   -0.0000000

LOEWDIN ATOMIC CHARGES
----------------------
   0 C :    0.209673
   1 O :   -0.307264
   2 C :    0.071322
   3 O :   -0.109338
   4 H :   -0.014617
   5 H :   -0.005596
   6 H :    0.014978
   7 H :    0.022599
   8 H :    0.091427
   9 H :    0.026817

  Mayer bond orders larger than 0.100000
B(  0-C ,  1-O ) :   1.4362 B(  0-C ,  3-O ) :   0.6195 B(  0-C ,  4-H ) :   0.9044
B(  0-C ,  5-H ) :   0.9176 B(  1-O ,  8-H ) :   0.4496 B(  2-C ,  3-O ) :   0.9477
B(  2-C ,  6-H ) :   0.9649 B(  2-C ,  7-H ) :   0.9795 B(  2-C ,  9-H ) :   0.9769
B(  3-O ,  8-H ) :   0.5655

Dispersion correction           -0.008714618
FINAL SINGLE POINT ENERGY      -229.886681499528
Dispersion correction             ... done (  0.1 sec)

DIPOLE MOMENT
-------------

Method             : SCF
Type of density    : Electron Density
Multiplicity       :   1
Irrep              :   0
Energy             :  -229.8779668817330162 Eh
Basis              : AO
                                X                 Y                 Z
Electronic contribution:      1.403482382      -2.195092650       1.591502518
Nuclear contribution   :     -2.089846862       2.887014850      -2.450733687
                        -----------------------------------------
Total Dipole Moment    :     -0.686364480       0.691922200      -0.859231169
                        -----------------------------------------
Magnitude (a.u.)       :      1.299280852
Magnitude (Debye)      :      3.302509471

Rotational constants in cm-1:             0.687744             0.157900             0.151032
Rotational constants in MHz :         20618.061401          4733.708530          4527.827520

                             ****ORCA TERMINATED NORMALLY****
TOTAL RUN TIME: 0 days 0 hours 0 minutes 9 seconds 489 msec
