                         Program Version 6.1.0  -  RELEASE   -
|  1> ! B3LYP def2-SVP d3 EnGrad
|  2> %pal nprocs 6 end
|  3> *xyz 0 1
|  4> H   -1.42515803169095 0.33950643792293 1.31537840617441
|  5> C   -1.33414606296751 0.42436710073323 0.21917369260305
|  6> C   0.10116775419568 0.79872622809061 -0.15412989104777
|  7> H   -2.02429090944459 1.2324734070329 -0.09568549715951
|  8> H   0.21013076625984 0.98114157575399 -1.23680508159828
|  9> O   -1.7065596631072 -0.8334352927177 -0.29915120596082
| 10> H   -1.61590412944273 -0.80808692480946 -1.26158669678239
| 11> O   1.90204209016378 -0.7662700443214 -0.49329669248432
| 12> C   1.0769527695618 -0.28786071623593 0.24104983364507
| 13> H   0.3884778725516 1.7284906547353 0.37318219447108
| 14> H   0.98203454392025 -0.63065642618448 1.30761393813947
| 15> *
| 16>
| 17>                          ****END OF INPUT****

CARTESIAN COORDINATES (ANGSTROEM)
---------------------------------
  H     -1.425158    0.339506    1.315378
  C     -1.334146    0.424367    0.219174
  C      0.101168    0.798726   -0.154130
  H     -2.024291    1.232473   -0.095685
  H      0.210131    0.981142   -1.236805
  O     -1.706560   -0.833435   -0.299151
  H     -1.615904   -0.808087   -1.261587
  O      1.902042   -0.766270   -0.493297
  C      1.076953   -0.287861    0.241050
  H      0.388478    1.728491    0.373182
  H      0.982035   -0.630656    1.307614

 Total Charge           Charge          ....    0
 Multiplicity           Mult            ....    1
 Number of Electrons    NEL             ....   40
 Basis Dimension        Dim             ....  100

ORBITAL ENERGIES
----------------

  NO   OCC          E(Eh)            E(eV)
   0   2.0000     -19.138178      -520.7763
   1   2.0000     -19.133418      -520.6468
   2   2.0000     -10.276175      -279.6289
   3   2.0000     -10.247553      -278.8501
   4   2.0000     -10.201351      -277.5929
   5   2.0000      -1.037906       -28.2429
   6   2.0000      -1.017587       -27.6899
   7   2.0000      -0.775610       -21.1054
   8   2.0000      -0.652226       -17.7480
   9   2.0000      -0.578572       -15.7437
  10   2.0000      -0.513182       -13.9644
  11   2.0000      -0.474960       -12.9243
  12   2.0000      -0.463463       -12.6115
  13   2.0000      -0.447526       -12.1778
  14   2.0000      -0.421047       -11.4573
  15   2.0000      -0.394065       -10.7231
  16   2.0000      -0.369326       -10.0499
  17   2.0000      -0.336587        -9.1590
  18   2.0000      -0.286374        -7.7926
  19   2.0000      -0.254097        -6.9143
  20   0.0000      -0.024720        -0.6727
  21   0.0000       0.045475         1.2374
  22   0.0000       0.071943         1.9577
  23   0.0000       0.092721         2.5231
  24   0.0000       0.107475         2.9245

MULLIKEN ATOMIC CHARGES
-----------------------
   0 H :    0.012336
   1 C :    0.184322
   2 C :   -0.017662
   3 H :    0.007052
   4 H :    0.013963
   5 O :   -0.313905
   6 H :    0.167531
   7 O :   -0.190816
   8 C :    0.119330
   9 H :    0.029841
  10 H :   -0.011992
Sum of atomic charges:   -0.0000000

LOEWDIN ATOMIC CHARGES
----------------------
   0 H :    0.020532
   1 C :    0.074734
   2 C :   -0.093328
   3 H :    0.007822
   4 H :    0.027597
   5 O :   -0.137704
   6 H :    0.078760
   7 O :   -0.129326
   8 C :    0.114859
   9 H :    0.045421
  10 H :   -0.009369

  Mayer bond orders larger than 0.100000
B(  0-H ,  1-C ) :   0.9452 B(  1-C ,  2-C ) :   1.0584 B(  1-C ,  3-H ) :   0.9486
B(  1-C ,  5-O ) :   1.0470 B(  2-C ,  4-H ) :   0.9315 B(  2-C ,  8-C ) :   0.9520
B(  2-C ,  9-H ) :   0.9106 B(  5-O ,  6-H ) :   0.9797 B(  7-O ,  8-C ) :   2.1703
B(  8-C , 10-H ) :   0.9265

Dispersion correction           -0.011981692
FINAL SINGLE POINT ENERGY      -268.017999318339
Dispersion correction             ... done (  0.0 sec)

DIPOLE MOMENT
-------------

Method             : SCF
Type of density    : Electron Density
Multiplicity       :   1
Irrep              :   0
Energy             :  -268.0060176260346907 Eh
Basis              : AO
                                X                 Y                 Z
Electronic contribution:      2.504072279      -2.592912836      -0.938912161
Nuclear contribution   :     -3.093817792       3.521516559       1.022180438
                        -----------------------------------------
Total Dipole Moment    :     -0.589745513       0.928603723       0.083268278
                        -----------------------------------------
Magnitude (a.u.)       :      1.103194566
Magnitude (Debye)      :      2.804097742

Rotational constants in cm-1:             0.356326             0.104169             0.089543
Rotational constants in MHz :         10682.388341          3122.912214          2684.418536

                             ****ORCA TERMINATED NORMALLY****
TOTAL RUN TIME: 0 days 0 hours 0 minutes 11 seconds 709 msec
