                         Program Version 6.1.0  -  RELEASE   -
|  1> ! B3LYP def2-SVP d3 EnGrad
|  2> %pal nprocs 6 end
|  3> *xyz 0 1
|  4> C   1.65788534505849 -0.95347013552937 0.02752125379759
|  5> C   -1.1900630525978 0.25635686139538 -0.394469249585
|  6> H   -1.24605701730822 0.50269681056588 -1.46422169049154
|  7> C   -2.08276580403917 -0.59642496468711 0.11616288308804
|  8> C   -0.07082373782042 0.91339736671193 0.3628979803805
|  9> C   1.32544445341439 0.52619243116269 -0.15896031381864
| 10> H   0.93179963922077 -1.59568068022208 -0.49589541135305
| 11> H   -2.06177334048525 -0.87809447639228 1.17481277853433
| 12> H   -2.86862464744222 -1.04281534099196 -0.49998258695429
| 13> H   -0.14919749341314 0.6619841433982 1.43550839579259
| 14> H   -0.18177106852826 2.0109758136195 0.28642327444183
| 15> H   2.07949664076685 1.14604123593008 0.35645921059742
| 16> H   1.39565384195976 0.79146187327532 -1.22991770197663
| 17> H   2.66200775967131 -1.19213194112269 -0.35823142742078
| 18> H   1.63393948154293 -1.23331199711349 1.09453460496766
| 19> *
| 20>
| 21>                          ****END OF INPUT****

CARTESIAN COORDINATES (ANGSTROEM)
---------------------------------
  C      1.657885   -0.953470    0.027521
  C     -1.190063    0.256357   -0.394469
  H     -1.246057    0.502697   -1.464222
  C     -2.082766   -0.596425    0.116163
  C     -0.070824    0.913397    0.362898
  C      1.325444    0.526192   -0.158960
  H      0.931800   -1.595681   -0.495895
  H     -2.061773   -0.878094    1.174813
  H     -2.868625   -1.042815   -0.499983
  H     -0.149197    0.661984    1.435508
  H     -0.181771    2.010976    0.286423
  H      2.079497    1.146041    0.356459
  H      1.395654    0.791462   -1.229918
  H      2.662008   -1.192132   -0.358231
  H      1.633939   -1.233312    1.094535

 Total Charge           Charge          ....    0
 Multiplicity           Mult            ....    1
 Number of Electrons    NEL             ....   40
 Basis Dimension        Dim             ....  120

ORBITAL ENERGIES
----------------

  NO   OCC          E(Eh)            E(eV)
   0   2.0000     -10.184748      -277.1411
   1   2.0000     -10.182868      -277.0899
   2   2.0000     -10.181762      -277.0598
   3   2.0000     -10.176275      -276.9105
   4   2.0000     -10.171563      -276.7823
   5   2.0000      -0.794934       -21.6313
   6   2.0000      -0.737447       -20.0670
   7   2.0000      -0.667264       -18.1572
   8   2.0000      -0.583086       -15.8666
   9   2.0000      -0.540809       -14.7162
  10   2.0000      -0.457922       -12.4607
  11   2.0000      -0.450236       -12.2515
  12   2.0000      -0.435204       -11.8425
  13   2.0000      -0.400665       -10.9026
  14   2.0000      -0.383422       -10.4334
  15   2.0000      -0.349248        -9.5035
  16   2.0000      -0.345976        -9.4145
  17   2.0000      -0.330282        -8.9874
  18   2.0000      -0.322180        -8.7670
  19   2.0000      -0.254931        -6.9370
  20   0.0000       0.015439         0.4201
  21   0.0000       0.066620         1.8128
  22   0.0000       0.083164         2.2630
  23   0.0000       0.097762         2.6602
  24   0.0000       0.105487         2.8704

MULLIKEN ATOMIC CHARGES
-----------------------
   0 C :    0.005084
   1 C :   -0.082519
   2 H :   -0.004230
   3 C :   -0.028413
   4 C :    0.081950
   5 C :   -0.026446
   6 H :    0.016007
   7 H :    0.010908
   8 H :    0.017086
   9 H :   -0.008512
  10 H :    0.006265
  11 H :   -0.000095
  12 H :   -0.000463
  13 H :    0.009461
  14 H :    0.003918
Sum of atomic charges:   -0.0000000

LOEWDIN ATOMIC CHARGES
----------------------
   0 C :   -0.058371
   1 C :   -0.024030
   2 H :    0.021936
   3 C :   -0.067032
   4 C :   -0.033345
   5 C :   -0.034157
   6 H :    0.022287
   7 H :    0.019302
   8 H :    0.022203
   9 H :    0.021902
  10 H :    0.029064
  11 H :    0.019885
  12 H :    0.018064
  13 H :    0.022144
  14 H :    0.020147

  Mayer bond orders larger than 0.100000
B(  0-C ,  5-C ) :   1.1013 B(  0-C ,  6-H ) :   0.9683 B(  0-C , 13-H ) :   0.9668
B(  0-C , 14-H ) :   0.9689 B(  1-C ,  2-H ) :   0.9578 B(  1-C ,  3-C ) :   2.0098
B(  1-C ,  4-C ) :   1.0547 B(  3-C ,  7-H ) :   0.9524 B(  3-C ,  8-H ) :   0.9493
B(  4-C ,  5-C ) :   1.0744 B(  4-C ,  9-H ) :   0.9382 B(  4-C , 10-H ) :   0.9233
B(  5-C , 11-H ) :   0.9431 B(  5-C , 12-H ) :   0.9477

Dispersion correction           -0.018132567
FINAL SINGLE POINT ENERGY      -196.265886528167
Dispersion correction             ... done (  0.1 sec)

DIPOLE MOMENT
-------------

Method             : SCF
Type of density    : Electron Density
Multiplicity       :   1
Irrep              :   0
Energy             :  -196.2477539610554800 Eh
Basis              : AO
                                X                 Y                 Z
Electronic contribution:     -2.230501489       0.983414093      -0.336529310
Nuclear contribution   :      2.342632596      -0.900525149       0.315860335
                        -----------------------------------------
Total Dipole Moment    :      0.112131107       0.082888944      -0.020668975
                        -----------------------------------------
Magnitude (a.u.)       :      0.140965133
Magnitude (Debye)      :      0.358304893

Rotational constants in cm-1:             0.297980             0.100593             0.085179
Rotational constants in MHz :          8933.229345          3015.696947          2553.607001

                             ****ORCA TERMINATED NORMALLY****
TOTAL RUN TIME: 0 days 0 hours 0 minutes 16 seconds 249 msec
