                         Program Version 6.1.0  -  RELEASE   -
|  1> ! B3LYP def2-SVP d3 EnGrad
|  2> %pal nprocs 6 end
|  3> *xyz 0 1
|  4> C   2.7008182963674 -1.96830925576518 -0.20162893261748
|  5> C   -0.75835216391326 0.28360425659086 -0.29027632094113
|  6> H   -0.45740966632907 0.25011397192872 -1.34565830051207
|  7> C   -1.19517857733601 -1.02066579175378 0.3049132101308
|  8> C   -0.70249604755197 1.45387688830685 0.35285524095935
|  9> C   2.47997358326462 -0.66062327225807 -0.06137867259549
| 10> H   -0.38534656133367 -1.7676057540102 0.23642249744965
| 11> H   -1.47886570846925 -0.91169758019061 1.36354315150772
| 12> H   -2.0590448488662 -1.43736093750949 -0.24282813759323
| 13> H   -0.98868238280091 1.54229419037047 1.40685521493082
| 14> H   -0.36948275718286 2.36733802307408 -0.14834314055572
| 15> H   2.17044224931267 -0.22353489633539 0.89240363447682
| 16> H   2.5859089331336 0.03580390362494 -0.89908176329579
| 17> H   3.00068620421546 -2.40316650273688 -1.1608678730185
| 18> H   2.59096328748939 -2.66324639333628 0.63738372167425
| 19> *
| 20>
| 21>                          ****END OF INPUT****

CARTESIAN COORDINATES (ANGSTROEM)
---------------------------------
  C      2.700818   -1.968309   -0.201629
  C     -0.758352    0.283604   -0.290276
  H     -0.457410    0.250114   -1.345658
  C     -1.195179   -1.020666    0.304913
  C     -0.702496    1.453877    0.352855
  C      2.479974   -0.660623   -0.061379
  H     -0.385347   -1.767606    0.236422
  H     -1.478866   -0.911698    1.363543
  H     -2.059045   -1.437361   -0.242828
  H     -0.988682    1.542294    1.406855
  H     -0.369483    2.367338   -0.148343
  H      2.170442   -0.223535    0.892404
  H      2.585909    0.035804   -0.899082
  H      3.000686   -2.403167   -1.160868
  H      2.590963   -2.663246    0.637384

 Total Charge           Charge          ....    0
 Multiplicity           Mult            ....    1
 Number of Electrons    NEL             ....   40
 Basis Dimension        Dim             ....  120

ORBITAL ENERGIES
----------------

  NO   OCC          E(Eh)            E(eV)
   0   2.0000     -10.186176      -277.1799
   1   2.0000     -10.185663      -277.1660
   2   2.0000     -10.184921      -277.1458
   3   2.0000     -10.179470      -276.9975
   4   2.0000     -10.174376      -276.8588
   5   2.0000      -0.771486       -20.9932
   6   2.0000      -0.746759       -20.3204
   7   2.0000      -0.670756       -18.2522
   8   2.0000      -0.567584       -15.4448
   9   2.0000      -0.541112       -14.7244
  10   2.0000      -0.462008       -12.5719
  11   2.0000      -0.459053       -12.4915
  12   2.0000      -0.417358       -11.3569
  13   2.0000      -0.415926       -11.3179
  14   2.0000      -0.404703       -11.0125
  15   2.0000      -0.365677        -9.9506
  16   2.0000      -0.349990        -9.5237
  17   2.0000      -0.340506        -9.2656
  18   2.0000      -0.271554        -7.3894
  19   2.0000      -0.252586        -6.8732
  20   0.0000       0.003486         0.0949
  21   0.0000       0.026403         0.7185
  22   0.0000       0.067831         1.8458
  23   0.0000       0.089050         2.4232
  24   0.0000       0.096853         2.6355

MULLIKEN ATOMIC CHARGES
-----------------------
   0 C :   -0.063834
   1 C :   -0.100221
   2 H :    0.002199
   3 C :    0.056357
   4 C :   -0.039884
   5 C :   -0.042986
   6 H :    0.023765
   7 H :    0.006083
   8 H :    0.020029
   9 H :    0.009162
  10 H :    0.016647
  11 H :    0.032494
  12 H :    0.026027
  13 H :    0.026676
  14 H :    0.027488
Sum of atomic charges:   -0.0000000

LOEWDIN ATOMIC CHARGES
----------------------
   0 C :   -0.056877
   1 C :   -0.021986
   2 H :    0.022775
   3 C :   -0.057730
   4 C :   -0.074770
   5 C :   -0.037834
   6 H :    0.032667
   7 H :    0.025802
   8 H :    0.032013
   9 H :    0.018284
  10 H :    0.021494
  11 H :    0.025830
  12 H :    0.023840
  13 H :    0.023291
  14 H :    0.023200

  Mayer bond orders larger than 0.100000
B(  0-C ,  5-C ) :   2.0633 B(  0-C , 13-H ) :   0.9619 B(  0-C , 14-H ) :   0.9607
B(  1-C ,  2-H ) :   0.9578 B(  1-C ,  3-C ) :   1.0842 B(  1-C ,  4-C ) :   2.0198
B(  3-C ,  6-H ) :   0.9476 B(  3-C ,  7-H ) :   0.9648 B(  3-C ,  8-H ) :   0.9527
B(  4-C ,  9-H ) :   0.9516 B(  4-C , 10-H ) :   0.9525 B(  5-C , 11-H ) :   0.9613
B(  5-C , 12-H ) :   0.9627

Dispersion correction           -0.015406494
FINAL SINGLE POINT ENERGY      -196.224595243251
Dispersion correction             ... done (  0.0 sec)

DIPOLE MOMENT
-------------

Method             : SCF
Type of density    : Electron Density
Multiplicity       :   1
Irrep              :   0
Energy             :  -196.2091887497408322 Eh
Basis              : AO
                                X                 Y                 Z
Electronic contribution:      0.349053784       0.979159048      -0.467792199
Nuclear contribution   :     -0.353759537      -1.114092795       0.426460535
                        -----------------------------------------
Total Dipole Moment    :     -0.004705753      -0.134933747      -0.041331664
                        -----------------------------------------
Magnitude (a.u.)       :      0.141200448
Magnitude (Debye)      :      0.358903018

Rotational constants in cm-1:             0.231236             0.062952             0.053079
Rotational constants in MHz :          6932.291895          1887.247756          1591.270777

                             ****ORCA TERMINATED NORMALLY****
TOTAL RUN TIME: 0 days 0 hours 0 minutes 14 seconds 250 msec
