                         Program Version 6.1.0  -  RELEASE   -
|  1> ! B3LYP def2-SVP d3 EnGrad
|  2> %pal nprocs 6 end
|  3> *xyz 0 1
|  4> C   2.87087435796239 -0.75380068286573 0.99612604814001
|  5> C   1.69021598179407 -0.23820437011537 0.2224399303794
|  6> H   3.44099023659602 0.06015604981042 1.4611570327209
|  7> H   3.51895203720288 -1.32273344981821 0.31230539457835
|  8> H   2.50833447038496 -1.44909205060165 1.76833149802813
|  9> O   1.6258410707208 1.10618013558865 0.28057344155685
| 10> O   0.51872584011274 1.62865989728378 -0.4543499543285
| 11> H   0.03929898297672 0.80715243314818 -0.73192537560752
| 12> O   0.87723370039934 -0.89669218099659 -0.38323321059424
| 13> C   -2.42886593885868 0.95004522471131 -0.70220210167211
| 14> C   -2.29756366915457 -0.25537683809728 -1.28078861540308
| 15> C   -2.29947182799702 -1.59834887446919 -0.61303579847334
| 16> H   -2.16905945801051 -0.27593730147826 -2.37053908303506
| 17> H   -2.52271266855153 -1.53857824386743 0.46197071638865
| 18> H   -1.3134302820256 -2.07896744207325 -0.72273382572061
| 19> H   -3.04444741789773 -2.2660448834709 -1.07944678069576
| 20> C   -2.59493383930075 1.25255792080255 0.75819795042339
| 21> H   -2.3976056802882 1.82900851971252 -1.35850617225411
| 22> H   -2.69634692276232 0.34735391551419 1.37389047538248
| 23> H   -3.48280452026039 1.88493067573332 0.93164311024617
| 24> H   -1.72225445304253 1.81920454554897 1.12609731994
| 25> *
| 26>
| 27>                          ****END OF INPUT****

CARTESIAN COORDINATES (ANGSTROEM)
---------------------------------
  C      2.870874   -0.753801    0.996126
  C      1.690216   -0.238204    0.222440
  H      3.440990    0.060156    1.461157
  H      3.518952   -1.322733    0.312305
  H      2.508334   -1.449092    1.768331
  O      1.625841    1.106180    0.280573
  O      0.518726    1.628660   -0.454350
  H      0.039299    0.807152   -0.731925
  O      0.877234   -0.896692   -0.383233
  C     -2.428866    0.950045   -0.702202
  C     -2.297564   -0.255377   -1.280789
  C     -2.299472   -1.598349   -0.613036
  H     -2.169059   -0.275937   -2.370539
  H     -2.522713   -1.538578    0.461971
  H     -1.313430   -2.078967   -0.722734
  H     -3.044447   -2.266045   -1.079447
  C     -2.594934    1.252558    0.758198
  H     -2.397606    1.829009   -1.358506
  H     -2.696347    0.347354    1.373890
  H     -3.482805    1.884931    0.931643
  H     -1.722254    1.819205    1.126097

 Total Charge           Charge          ....    0
 Multiplicity           Mult            ....    1
 Number of Electrons    NEL             ....   72
 Basis Dimension        Dim             ....  186

ORBITAL ENERGIES
----------------

  NO   OCC          E(Eh)            E(eV)
   0   2.0000     -19.233032      -523.3574
   1   2.0000     -19.192681      -522.2594
   2   2.0000     -19.142724      -520.9000
   3   2.0000     -10.331053      -281.1222
   4   2.0000     -10.216845      -278.0145
   5   2.0000     -10.179609      -277.0012
   6   2.0000     -10.178625      -276.9745
   7   2.0000     -10.175904      -276.9004
   8   2.0000     -10.172669      -276.8124
   9   2.0000      -1.164009       -31.6743
  10   2.0000      -1.045347       -28.4453
  11   2.0000      -0.924886       -25.1674
  12   2.0000      -0.782454       -21.2917
  13   2.0000      -0.753678       -20.5086
  14   2.0000      -0.706861       -19.2347
  15   2.0000      -0.640413       -17.4265
  16   2.0000      -0.623285       -16.9604
  17   2.0000      -0.519479       -14.1358
  18   2.0000      -0.512802       -13.9541
  19   2.0000      -0.498646       -13.5688
  20   2.0000      -0.497273       -13.5315
  21   2.0000      -0.470239       -12.7958
  22   2.0000      -0.433884       -11.8066
  23   2.0000      -0.427717       -11.6388
  24   2.0000      -0.414159       -11.2698
  25   2.0000      -0.409051       -11.1308
  26   2.0000      -0.405981       -11.0473
  27   2.0000      -0.392920       -10.6919
  28   2.0000      -0.388813       -10.5801
  29   2.0000      -0.374902       -10.2016
  30   2.0000      -0.364644        -9.9225
  31   2.0000      -0.355334        -9.6691
  32   2.0000      -0.326964        -8.8971
  33   2.0000      -0.306598        -8.3430
  34   2.0000      -0.279172        -7.5967
  35   2.0000      -0.240222        -6.5368
  36   0.0000      -0.007664        -0.2085
  37   0.0000       0.012381         0.3369
  38   0.0000       0.030139         0.8201
  39   0.0000       0.059550         1.6204
  40   0.0000       0.076286         2.0758

MULLIKEN ATOMIC CHARGES
-----------------------
   0 C :    0.034538
   1 C :    0.139182
   2 H :    0.046305
   3 H :    0.059331
   4 H :    0.058301
   5 O :   -0.146992
   6 O :   -0.139507
   7 H :    0.202989
   8 O :   -0.246344
   9 C :   -0.134275
  10 C :   -0.106544
  11 C :    0.070918
  12 H :   -0.004365
  13 H :   -0.001389
  14 H :    0.038059
  15 H :    0.012541
  16 C :    0.074346
  17 H :    0.000137
  18 H :    0.002625
  19 H :    0.016583
  20 H :    0.023562
Sum of atomic charges:   -0.0000000

LOEWDIN ATOMIC CHARGES
----------------------
   0 C :   -0.065285
   1 C :    0.070598
   2 H :    0.043297
   3 H :    0.055623
   4 H :    0.054887
   5 O :   -0.005208
   6 O :   -0.032107
   7 H :    0.057813
   8 O :   -0.177244
   9 C :   -0.054260
  10 C :   -0.046756
  11 C :   -0.060513
  12 H :    0.023006
  13 H :    0.022417
  14 H :    0.035622
  15 H :    0.029559
  16 C :   -0.060792
  17 H :    0.023757
  18 H :    0.022964
  19 H :    0.031332
  20 H :    0.031292

  Mayer bond orders larger than 0.100000
B(  0-C ,  1-C ) :   1.0456 B(  0-C ,  2-H ) :   0.9536 B(  0-C ,  3-H ) :   0.9471
B(  0-C ,  4-H ) :   0.9482 B(  1-C ,  5-O ) :   1.1563 B(  1-C ,  8-O ) :   1.9862
B(  5-O ,  6-O ) :   0.9258 B(  6-O ,  7-H ) :   0.8910 B(  9-C , 10-C ) :   1.9260
B(  9-C , 16-C ) :   1.0857 B(  9-C , 17-H ) :   0.9519 B( 10-C , 11-C ) :   1.0888
B( 10-C , 12-H ) :   0.9518 B( 11-C , 13-H ) :   0.9591 B( 11-C , 14-H ) :   0.9425
B( 11-C , 15-H ) :   0.9494 B( 16-C , 18-H ) :   0.9596 B( 16-C , 19-H ) :   0.9507
B( 16-C , 20-H ) :   0.9441

Dispersion correction           -0.026563170
FINAL SINGLE POINT ENERGY      -460.860922536847
Dispersion correction             ... done (  0.0 sec)

DIPOLE MOMENT
-------------

Method             : SCF
Type of density    : Electron Density
Multiplicity       :   1
Irrep              :   0
Energy             :  -460.8343593668454901 Eh
Basis              : AO
                                X                 Y                 Z
Electronic contribution:      7.818124565       3.170085667      -1.915368573
Nuclear contribution   :     -7.276859200      -3.687582168       2.388724718
                        -----------------------------------------
Total Dipole Moment    :      0.541265365      -0.517496501       0.473356145
                        -----------------------------------------
Magnitude (a.u.)       :      0.885910190
Magnitude (Debye)      :      2.251804748

Rotational constants in cm-1:             0.075995             0.027140             0.022859
Rotational constants in MHz :          2278.276370           813.640261           685.304781

                             ****ORCA TERMINATED NORMALLY****
TOTAL RUN TIME: 0 days 0 hours 0 minutes 29 seconds 621 msec
