                         Program Version 6.1.0  -  RELEASE   -
|  1> ! B3LYP def2-SVP d3 EnGrad
|  2> %pal nprocs 6 end
|  3> *xyz 0 1
|  4> C   -1.48048516448618 0.15304315028199 -0.25999335218207
|  5> O   -2.23868125488006 -0.25498113044417 -1.06365627741441
|  6> C   -0.19482997955703 -0.55083251257444 0.22197804212597
|  7> F   -0.27811410959475 -0.7498657864538 1.5534391765189
|  8> F   -1.63020854977811 1.3117134882911 0.38385047542839
|  9> C   1.09012398166854 0.26662220944144 -0.07591490859897
| 10> F   -0.09746290445453 -1.73211003755587 -0.39916847394381
| 11> F   1.06930970088479 0.65049138322581 -1.35731475584089
| 12> F   1.1456334546899 1.34744510943555 0.69626739726294
| 13> F   2.16777582550741 -0.4791758736476 0.13945567664393
| 14> *
| 15>
| 16>                          ****END OF INPUT****

CARTESIAN COORDINATES (ANGSTROEM)
---------------------------------
  C     -1.480485    0.153043   -0.259993
  O     -2.238681   -0.254981   -1.063656
  C     -0.194830   -0.550833    0.221978
  F     -0.278114   -0.749866    1.553439
  F     -1.630209    1.311713    0.383850
  C      1.090124    0.266622   -0.075915
  F     -0.097463   -1.732110   -0.399168
  F      1.069310    0.650491   -1.357315
  F      1.145633    1.347445    0.696267
  F      2.167776   -0.479176    0.139456

 Total Charge           Charge          ....    0
 Multiplicity           Mult            ....    1
 Number of Electrons    NEL             ....   80
 Basis Dimension        Dim             ....  140

ORBITAL ENERGIES
----------------

  NO   OCC          E(Eh)            E(eV)
   0   2.0000     -24.758255      -673.7064
   1   2.0000     -24.756255      -673.6520
   2   2.0000     -24.756207      -673.6506
   3   2.0000     -24.756114      -673.6481
   4   2.0000     -24.750312      -673.4902
   5   2.0000     -24.749807      -673.4765
   6   2.0000     -19.199360      -522.4412
   7   2.0000     -10.473126      -284.9883
   8   2.0000     -10.414022      -283.3799
   9   2.0000     -10.394764      -282.8559
  10   2.0000      -1.343821       -36.5672
  11   2.0000      -1.299078       -35.3497
  12   2.0000      -1.274676       -34.6857
  13   2.0000      -1.250176       -34.0190
  14   2.0000      -1.248088       -33.9622
  15   2.0000      -1.234101       -33.5816
  16   2.0000      -1.109705       -30.1966
  17   2.0000      -0.820817       -22.3356
  18   2.0000      -0.729368       -19.8471
  19   2.0000      -0.674497       -18.3540
  20   2.0000      -0.646535       -17.5931
  21   2.0000      -0.639144       -17.3920
  22   2.0000      -0.633176       -17.2296
  23   2.0000      -0.610976       -16.6255
  24   2.0000      -0.598031       -16.2732
  25   2.0000      -0.540208       -14.6998
  26   2.0000      -0.525707       -14.3052
  27   2.0000      -0.512556       -13.9473
  28   2.0000      -0.506506       -13.7827
  29   2.0000      -0.503454       -13.6997
  30   2.0000      -0.489823       -13.3287
  31   2.0000      -0.481822       -13.1111
  32   2.0000      -0.468026       -12.7356
  33   2.0000      -0.467124       -12.7111
  34   2.0000      -0.449955       -12.2439
  35   2.0000      -0.446676       -12.1547
  36   2.0000      -0.440630       -11.9901
  37   2.0000      -0.420636       -11.4461
  38   2.0000      -0.401214       -10.9176
  39   2.0000      -0.349372        -9.5069
  40   0.0000      -0.071874        -1.9558
  41   0.0000       0.057050         1.5524
  42   0.0000       0.089645         2.4394
  43   0.0000       0.117342         3.1930
  44   0.0000       0.174271         4.7421

MULLIKEN ATOMIC CHARGES
-----------------------
   0 C :    0.232530
   1 O :   -0.092661
   2 C :    0.297293
   3 F :   -0.177565
   4 F :   -0.150532
   5 C :    0.486482
   6 F :   -0.159985
   7 F :   -0.156052
   8 F :   -0.141151
   9 F :   -0.138360
Sum of atomic charges:   -0.0000000

LOEWDIN ATOMIC CHARGES
----------------------
   0 C :    0.077285
   1 O :   -0.047296
   2 C :    0.065242
   3 F :   -0.050681
   4 F :   -0.029557
   5 C :    0.123134
   6 F :   -0.034927
   7 F :   -0.043371
   8 F :   -0.032478
   9 F :   -0.027351

  Mayer bond orders larger than 0.100000
B(  0-C ,  1-O ) :   2.2491 B(  0-C ,  2-C ) :   0.8491 B(  0-C ,  4-F ) :   1.1048
B(  2-C ,  3-F ) :   1.0894 B(  2-C ,  5-C ) :   0.8947 B(  2-C ,  6-F ) :   1.1267
B(  5-C ,  7-F ) :   1.1361 B(  5-C ,  8-F ) :   1.1624 B(  5-C ,  9-F ) :   1.1773

Dispersion correction           -0.012753930
FINAL SINGLE POINT ENERGY      -787.695132602061
Dispersion correction             ... done (  0.0 sec)

DIPOLE MOMENT
-------------

Method             : SCF
Type of density    : Electron Density
Multiplicity       :   1
Irrep              :   0
Energy             :  -787.6823786720924545 Eh
Basis              : AO
                                X                 Y                 Z
Electronic contribution:      2.380558008       0.381129860       1.119256288
Nuclear contribution   :     -2.158219677      -0.294409886      -0.926649060
                        -----------------------------------------
Total Dipole Moment    :      0.222338331       0.086719974       0.192607229
                        -----------------------------------------
Magnitude (a.u.)       :      0.306679363
Magnitude (Debye)      :      0.779516992

Rotational constants in cm-1:             0.062969             0.039670             0.036355
Rotational constants in MHz :          1887.773178          1189.279250          1089.907673

                             ****ORCA TERMINATED NORMALLY****
TOTAL RUN TIME: 0 days 0 hours 0 minutes 17 seconds 748 msec
