                         Program Version 6.1.0  -  RELEASE   -
|  1> ! B3LYP def2-SVP d3 EnGrad
|  2> %pal nprocs 6 end
|  3> *xyz 0 1
|  4> C   -0.04244628109593 0.39792275584195 -1.88986990759498
|  5> C   0.32809457377595 0.4182095841459 -0.47875546136275
|  6> C   1.30261251611163 0.68877218233391 0.36274206669548
|  7> C   1.34911359126654 0.36703341184317 1.84495944720486
|  8> O   2.54076378903538 -0.28735611718829 2.20481654793091
|  9> Cl   -4.18017602332111 -2.95953649594242 -1.208551896086
| 10> S   -2.37394930093147 -1.65752910086649 -0.59046285831529
| 11> O   -1.20884189014237 -0.89061985523458 0.45798105450427
| 12> Cl   -3.48342094431317 0.13169040179605 -0.8111956511869
| 13> H   -0.64744937806398 1.27457733505309 -2.17199172293431
| 14> H   -0.66328082002823 -0.49968373514888 -2.10405431488264
| 15> H   0.85337863213116 0.32894311501539 -2.53090649907364
| 16> H   -0.94138309733819 0.11209915902239 0.27289478859655
| 17> H   2.17956140214592 1.22472249107774 -0.04308391609707
| 18> H   1.20250110723505 1.30881112767415 2.41346293358433
| 19> H   0.51695978809863 -0.3064913341506 2.0922854351944
| 20> H   3.2679623354342 0.34843507472751 2.17972995382282
| 21> *
| 22>
| 23>                          ****END OF INPUT****

CARTESIAN COORDINATES (ANGSTROEM)
---------------------------------
  C     -0.042446    0.397923   -1.889870
  C      0.328095    0.418210   -0.478755
  C      1.302613    0.688772    0.362742
  C      1.349114    0.367033    1.844959
  O      2.540764   -0.287356    2.204817
  Cl    -4.180176   -2.959536   -1.208552
  S     -2.373949   -1.657529   -0.590463
  O     -1.208842   -0.890620    0.457981
  Cl    -3.483421    0.131690   -0.811196
  H     -0.647449    1.274577   -2.171992
  H     -0.663281   -0.499684   -2.104054
  H      0.853379    0.328943   -2.530906
  H     -0.941383    0.112099    0.272895
  H      2.179561    1.224722   -0.043084
  H      1.202501    1.308811    2.413463
  H      0.516960   -0.306491    2.092285
  H      3.267962    0.348435    2.179730

 Total Charge           Charge          ....    0
 Multiplicity           Mult            ....    1
 Number of Electrons    NEL             ....   98
 Basis Dimension        Dim             ....  178

ORBITAL ENERGIES
----------------

  NO   OCC          E(Eh)            E(eV)
   0   2.0000    -101.517217     -2762.4239
   1   2.0000    -101.431456     -2760.0903
   2   2.0000     -88.968053     -2420.9438
   3   2.0000     -19.192365      -522.2508
   4   2.0000     -19.152158      -521.1567
   5   2.0000     -10.267452      -279.3916
   6   2.0000     -10.264205      -279.3032
   7   2.0000     -10.238090      -278.5926
   8   2.0000     -10.234984      -278.5081
   9   2.0000      -9.471148      -257.7230
  10   2.0000      -9.384808      -255.3736
  11   2.0000      -8.049724      -219.0441
  12   2.0000      -7.241235      -197.0440
  13   2.0000      -7.229856      -196.7344
  14   2.0000      -7.229511      -196.7250
  15   2.0000      -7.151969      -194.6150
  16   2.0000      -7.145326      -194.4342
  17   2.0000      -7.144888      -194.4223
  18   2.0000      -6.020675      -163.8309
  19   2.0000      -6.017022      -163.7315
  20   2.0000      -6.006447      -163.4437
  21   2.0000      -1.032911       -28.1069
  22   2.0000      -1.024168       -27.8690
  23   2.0000      -0.857308       -23.3285
  24   2.0000      -0.833843       -22.6900
  25   2.0000      -0.761463       -20.7205
  26   2.0000      -0.754103       -20.5202
  27   2.0000      -0.689797       -18.7703
  28   2.0000      -0.675833       -18.3904
  29   2.0000      -0.576440       -15.6857
  30   2.0000      -0.542170       -14.7532
  31   2.0000      -0.513932       -13.9848
  32   2.0000      -0.498736       -13.5713
  33   2.0000      -0.476311       -12.9611
  34   2.0000      -0.463015       -12.5993
  35   2.0000      -0.449026       -12.2186
  36   2.0000      -0.438601       -11.9349
  37   2.0000      -0.430476       -11.7139
  38   2.0000      -0.403293       -10.9742
  39   2.0000      -0.381501       -10.3812
  40   2.0000      -0.362059        -9.8521
  41   2.0000      -0.341954        -9.3050
  42   2.0000      -0.322602        -8.7784
  43   2.0000      -0.305262        -8.3066
  44   2.0000      -0.300821        -8.1858
  45   2.0000      -0.281990        -7.6733
  46   2.0000      -0.263849        -7.1797
  47   2.0000      -0.251385        -6.8405
  48   2.0000      -0.231595        -6.3020
  49   0.0000      -0.139549        -3.7973
  50   0.0000      -0.093148        -2.5347
  51   0.0000      -0.032070        -0.8727
  52   0.0000       0.011003         0.2994
  53   0.0000       0.034703         0.9443

MULLIKEN ATOMIC CHARGES
-----------------------
   0 C :    0.076614
   1 C :   -0.172475
   2 C :   -0.092303
   3 C :    0.260106
   4 O :   -0.306994
   5 Cl:   -0.343094
   6 S :    0.436775
   7 O :   -0.359320
   8 Cl:   -0.123250
   9 H :    0.061921
  10 H :    0.062565
  11 H :    0.054243
  12 H :    0.192573
  13 H :    0.026688
  14 H :    0.019395
  15 H :    0.041421
  16 H :    0.165137
Sum of atomic charges:   -0.0000000

LOEWDIN ATOMIC CHARGES
----------------------
   0 C :   -0.057155
   1 C :    0.042477
   2 C :   -0.046737
   3 C :    0.082404
   4 O :   -0.123318
   5 Cl:   -0.329975
   6 S :    0.426383
   7 O :   -0.261367
   8 Cl:   -0.090133
   9 H :    0.051433
  10 H :    0.044447
  11 H :    0.056420
  12 H :    0.028641
  13 H :    0.047200
  14 H :    0.018463
  15 H :    0.033491
  16 H :    0.077326

  Mayer bond orders larger than 0.100000
B(  0-C ,  1-C ) :   1.1309 B(  0-C ,  9-H ) :   0.9360 B(  0-C , 10-H ) :   0.8903
B(  0-C , 11-H ) :   0.9300 B(  1-C ,  2-C ) :   1.9430 B(  1-C ,  5-Cl) :   0.1023
B(  1-C ,  6-S ) :   0.2317 B(  1-C ,  7-O ) :   0.2257 B(  1-C , 12-H ) :   0.2227
B(  2-C ,  3-C ) :   0.9801 B(  2-C , 13-H ) :   0.9131 B(  3-C ,  4-O ) :   1.0198
B(  3-C , 14-H ) :   0.9283 B(  3-C , 15-H ) :   0.9440 B(  4-O , 16-H ) :   0.9819
B(  5-Cl,  6-S ) :   0.6637 B(  5-Cl,  7-O ) :   0.1100 B(  6-S ,  7-O ) :   0.7892
B(  6-S ,  8-Cl) :   0.9363 B(  7-O , 12-H ) :   0.7155

Dispersion correction           -0.030521502
FINAL SINGLE POINT ENERGY     -1625.145982400582
Dispersion correction             ... done (  0.0 sec)

DIPOLE MOMENT
-------------

Method             : SCF
Type of density    : Electron Density
Multiplicity       :   1
Irrep              :   0
Energy             : -1625.1154608989984354 Eh
Basis              : AO
                                X                 Y                 Z
Electronic contribution:    -20.458083876      -8.782808357      -4.166038977
Nuclear contribution   :     22.988193422      11.065791802       4.124654327
                        -----------------------------------------
Total Dipole Moment    :      2.530109547       2.282983445      -0.041384650
                        -----------------------------------------
Magnitude (a.u.)       :      3.408105107
Magnitude (Debye)      :      8.662714744

Rotational constants in cm-1:             0.057979             0.012181             0.011259
Rotational constants in MHz :          1738.163008           365.165010           337.522357

                             ****ORCA TERMINATED NORMALLY****
TOTAL RUN TIME: 0 days 0 hours 0 minutes 30 seconds 493 msec
