                         Program Version 6.1.0  -  RELEASE   -
|  1> ! B3LYP def2-SVP d3 EnGrad
|  2> %pal nprocs 6 end
|  3> *xyz 0 1
|  4> C   -1.17782471309187 -0.65160790849152 -0.35186807805749
|  5> C   1.54497838908666 -0.02780277269032 -0.28759096226993
|  6> C   -1.21688460151854 0.72248540958544 -0.20472092071152
|  7> C   -0.60603028872626 -1.44928262012815 0.64183070421658
|  8> C   1.12732896311606 1.24909010086981 0.04830371620796
|  9> H   -1.49945643265994 1.37162303290144 -1.03687787109144
| 10> H   -1.28415238622985 1.16464701907979 0.78999790154407
| 11> H   -0.60209630020155 -1.10284177458699 1.67709190664806
| 12> H   0.86533135586793 1.47372793376794 1.08268473470096
| 13> H   -0.51258810766336 -2.52733497741505 0.50390000999903
| 14> H   1.35065567341419 2.09037854138312 -0.61268761174726
| 15> H   -1.26613481758641 -1.07342808571264 -1.35922078788556
| 16> H   1.95789810621072 -0.17422951111302 -1.31008962131811
| 17> O   1.31897515998222 -1.06542438744985 0.41924687976466
| 18> *
| 19>
| 20>                          ****END OF INPUT****

CARTESIAN COORDINATES (ANGSTROEM)
---------------------------------
  C     -1.177825   -0.651608   -0.351868
  C      1.544978   -0.027803   -0.287591
  C     -1.216885    0.722485   -0.204721
  C     -0.606030   -1.449283    0.641831
  C      1.127329    1.249090    0.048304
  H     -1.499456    1.371623   -1.036878
  H     -1.284152    1.164647    0.789998
  H     -0.602096   -1.102842    1.677092
  H      0.865331    1.473728    1.082685
  H     -0.512588   -2.527335    0.503900
  H      1.350656    2.090379   -0.612688
  H     -1.266135   -1.073428   -1.359221
  H      1.957898   -0.174230   -1.310090
  O      1.318975   -1.065424    0.419247

 Total Charge           Charge          ....    0
 Multiplicity           Mult            ....    1
 Number of Electrons    NEL             ....   46
 Basis Dimension        Dim             ....  124

ORBITAL ENERGIES
----------------

  NO   OCC          E(Eh)            E(eV)
   0   2.0000     -19.115666      -520.1637
   1   2.0000     -10.229253      -278.3521
   2   2.0000     -10.226302      -278.2718
   3   2.0000     -10.216684      -278.0101
   4   2.0000     -10.188686      -277.2482
   5   2.0000     -10.184059      -277.1223
   6   2.0000      -0.991279       -26.9741
   7   2.0000      -0.795329       -21.6420
   8   2.0000      -0.720937       -19.6177
   9   2.0000      -0.670726       -18.2514
  10   2.0000      -0.571921       -15.5628
  11   2.0000      -0.531420       -14.4607
  12   2.0000      -0.492610       -13.4046
  13   2.0000      -0.456303       -12.4166
  14   2.0000      -0.453310       -12.3352
  15   2.0000      -0.424974       -11.5641
  16   2.0000      -0.396833       -10.7984
  17   2.0000      -0.391133       -10.6433
  18   2.0000      -0.377084       -10.2610
  19   2.0000      -0.362380        -9.8609
  20   2.0000      -0.277015        -7.5380
  21   2.0000      -0.256643        -6.9836
  22   2.0000      -0.222177        -6.0458
  23   0.0000      -0.050658        -1.3785
  24   0.0000      -0.002675        -0.0728
  25   0.0000       0.064587         1.7575
  26   0.0000       0.074189         2.0188
  27   0.0000       0.096330         2.6213

MULLIKEN ATOMIC CHARGES
-----------------------
   0 C :   -0.087247
   1 C :    0.123113
   2 C :    0.012956
   3 C :    0.155031
   4 C :   -0.026826
   5 H :    0.037951
   6 H :    0.029504
   7 H :    0.031334
   8 H :    0.014688
   9 H :    0.036951
  10 H :    0.020746
  11 H :    0.005695
  12 H :   -0.024113
  13 O :   -0.329783
Sum of atomic charges:   -0.0000000

LOEWDIN ATOMIC CHARGES
----------------------
   0 C :   -0.093967
   1 C :    0.043337
   2 C :    0.031924
   3 C :    0.103740
   4 C :   -0.084281
   5 H :    0.030007
   6 H :    0.029256
   7 H :    0.028815
   8 H :    0.022615
   9 H :    0.032328
  10 H :    0.023335
  11 H :    0.026957
  12 H :   -0.007735
  13 O :   -0.186332

  Mayer bond orders larger than 0.100000
B(  0-C ,  2-C ) :   1.5984 B(  0-C ,  3-C ) :   1.4747 B(  0-C , 11-H ) :   0.9575
B(  1-C ,  4-C ) :   1.5465 B(  1-C , 12-H ) :   0.9518 B(  1-C , 13-O ) :   1.5608
B(  2-C ,  4-C ) :   0.3555 B(  2-C ,  5-H ) :   0.9511 B(  2-C ,  6-H ) :   0.9416
B(  2-C , 13-O ) :   0.1095 B(  3-C ,  4-C ) :   0.1183 B(  3-C ,  7-H ) :   0.9541
B(  3-C ,  9-H ) :   0.9517 B(  3-C , 13-O ) :   0.4142 B(  4-C ,  8-H ) :   0.9306
B(  4-C , 10-H ) :   0.9467

Dispersion correction           -0.020871525
FINAL SINGLE POINT ENERGY      -270.109532740212
Dispersion correction             ... done (  0.1 sec)

DIPOLE MOMENT
-------------

Method             : SCF
Type of density    : Electron Density
Multiplicity       :   1
Irrep              :   0
Energy             :  -270.0886612150302426 Eh
Basis              : AO
                                X                 Y                 Z
Electronic contribution:      1.672839743      -2.290919358       0.462380421
Nuclear contribution   :     -2.354423240       2.713642821      -0.652951121
                        -----------------------------------------
Total Dipole Moment    :     -0.681583497       0.422723463      -0.190570701
                        -----------------------------------------
Magnitude (a.u.)       :      0.824359376
Magnitude (Debye)      :      2.095355014

Rotational constants in cm-1:             0.158973             0.121319             0.079045
Rotational constants in MHz :          4765.896897          3637.044591          2369.701428

                             ****ORCA TERMINATED NORMALLY****
TOTAL RUN TIME: 0 days 0 hours 0 minutes 18 seconds 901 msec
