                         Program Version 6.1.0  -  RELEASE   -
|  1> ! B3LYP def2-SVP d3 EnGrad
|  2> %pal nprocs 6 end
|  3> *xyz 0 2
|  4> C   -1.93816915969514 0.48759934470308 -1.13935733316888
|  5> C   -1.50042974892657 0.70132499619556 0.12233979893856
|  6> C   -1.6208109146031 -0.373494872446 1.22168503567624
|  7> C   -1.72476547191138 -1.80850505331253 0.62584599735461
|  8> C   -2.74211109038861 -1.85287934144326 -0.51830906669253
|  9> C   -2.43346145360861 -0.85384026596912 -1.62842258479974
| 10> H   -2.80162289565176 -2.87509787479709 -0.92750391945913
| 11> H   -3.7416620583145 -1.63137193443863 -0.1116537371952
| 12> H   -1.68638585096358 -1.26858786193749 -2.33265404826908
| 13> H   -3.33568786910818 -0.69669045790926 -2.24596368103871
| 14> C   -1.95046307591566 1.54922845147773 -2.21393878117189
| 15> H   -1.93593387971774 2.5739297788785 -1.82001517345949
| 16> H   -1.08465788699587 1.44264284329719 -2.89350683858668
| 17> H   -2.85140666044327 1.44640620308894 -2.84175184372538
| 18> C   -0.37255622962843 -2.48076029116089 0.26391480465027
| 19> C   -1.02198373686951 2.08064247540445 0.55857137808922
| 20> C   0.60797862041531 -1.73887718960789 -0.60170722153207
| 21> H   0.12038647830411 -2.78693617460535 1.19595647027956
| 22> C   0.28073889237722 2.60198453352528 -0.09431509248502
| 23> C   1.54840419926594 1.8342065817359 0.14971157679825
| 24> H   0.41898178916319 3.6457861265771 0.26729832695501
| 25> C   -0.45268364290737 -0.33644923021175 2.22708707134319
| 26> H   -0.49053795566126 0.55823765644485 2.86406080747777
| 27> H   -0.51468210248034 -1.20762432535896 2.89892578878639
| 28> C   -2.91203008063487 -0.06013224391052 2.01868420203712
| 29> H   -2.87684018226352 0.96131731310671 2.42927588773176
| 30> H   -3.80946554234001 -0.12870048797884 1.38757755427511
| 31> H   -3.02658455748386 -0.75653419077416 2.86645070360139
| 32> H   -1.81057113446804 2.82138054165444 0.33651331461915
| 33> H   -0.90605628266573 2.11051409503402 1.65009642010893
| 34> H   0.12554124407263 2.68716626268025 -1.17861067000876
| 35> C   2.47747310357823 1.6660858263562 -1.01887716694602
| 36> H   3.09587020725542 2.59187822654683 -1.09287924499413
| 37> C   3.44301419627342 0.47106021649996 -1.02443221294682
| 38> H   4.23449743736766 0.67989834750743 -1.76378742172143
| 39> H   3.96376289571723 0.39239883783006 -0.05533031348739
| 40> C   2.79726305821567 -0.87500416091944 -1.40110601426891
| 41> H   2.22222940110449 -0.7383665050256 -2.33226299495572
| 42> H   3.61456170074916 -1.58125024909043 -1.64274056389805
| 43> C   1.91593582665443 -1.52964689475201 -0.35962369313692
| 44> H   1.88716817294011 1.64154145163552 -1.95172207641974
| 45> H   0.22599660036057 -1.38122971398807 -1.56169005961062
| 46> C   2.14488974532421 1.87844552818274 1.52212539554889
| 47> H   2.8429653877012 2.73958328110775 1.618884983828
| 48> H   1.38148831861602 1.99467709757411 2.3047411247831
| 49> H   2.73331248750444 0.97912639238957 1.76470824900629
| 50> C   2.63742708966823 -1.97834997475118 0.8859213750071
| 51> H   3.46820490096967 -2.65733339672164 0.62346723642568
| 52> H   3.09281325915009 -1.12434143954366 1.41453139193562
| 53> H   1.9896197179604 -2.4997430565032 1.60170282859942
| 54> H   -0.63003122873752 -3.42705341148418 -0.25018722497985
| 55> H   -2.13432562538664 -2.44158140694501 1.4333185345232
| 56> H   0.51978258706206 -0.35361340384802 1.72436972057841
| 57> *
| 58>
| 59>                          ****END OF INPUT****

CARTESIAN COORDINATES (ANGSTROEM)
---------------------------------
  C     -1.938169    0.487599   -1.139357
  C     -1.500430    0.701325    0.122340
  C     -1.620811   -0.373495    1.221685
  C     -1.724765   -1.808505    0.625846
  C     -2.742111   -1.852879   -0.518309
  C     -2.433461   -0.853840   -1.628423
  H     -2.801623   -2.875098   -0.927504
  H     -3.741662   -1.631372   -0.111654
  H     -1.686386   -1.268588   -2.332654
  H     -3.335688   -0.696690   -2.245964
  C     -1.950463    1.549228   -2.213939
  H     -1.935934    2.573930   -1.820015
  H     -1.084658    1.442643   -2.893507
  H     -2.851407    1.446406   -2.841752
  C     -0.372556   -2.480760    0.263915
  C     -1.021984    2.080642    0.558571
  C      0.607979   -1.738877   -0.601707
  H      0.120386   -2.786936    1.195956
  C      0.280739    2.601985   -0.094315
  C      1.548404    1.834207    0.149712
  H      0.418982    3.645786    0.267298
  C     -0.452684   -0.336449    2.227087
  H     -0.490538    0.558238    2.864061
  H     -0.514682   -1.207624    2.898926
  C     -2.912030   -0.060132    2.018684
  H     -2.876840    0.961317    2.429276
  H     -3.809466   -0.128700    1.387578
  H     -3.026585   -0.756534    2.866451
  H     -1.810571    2.821381    0.336513
  H     -0.906056    2.110514    1.650096
  H      0.125541    2.687166   -1.178611
  C      2.477473    1.666086   -1.018877
  H      3.095870    2.591878   -1.092879
  C      3.443014    0.471060   -1.024432
  H      4.234497    0.679898   -1.763787
  H      3.963763    0.392399   -0.055330
  C      2.797263   -0.875004   -1.401106
  H      2.222229   -0.738367   -2.332263
  H      3.614562   -1.581250   -1.642741
  C      1.915936   -1.529647   -0.359624
  H      1.887168    1.641541   -1.951722
  H      0.225997   -1.381230   -1.561690
  C      2.144890    1.878446    1.522125
  H      2.842965    2.739583    1.618885
  H      1.381488    1.994677    2.304741
  H      2.733312    0.979126    1.764708
  C      2.637427   -1.978350    0.885921
  H      3.468205   -2.657333    0.623467
  H      3.092813   -1.124341    1.414531
  H      1.989620   -2.499743    1.601703
  H     -0.630031   -3.427053   -0.250187
  H     -2.134326   -2.441581    1.433319
  H      0.519783   -0.353613    1.724370

 Total Charge           Charge          ....    0
 Multiplicity           Mult            ....    2
 Number of Electrons    NEL             ....  153
 Basis Dimension        Dim             ....  445

ORBITAL ENERGIES
----------------
                 SPIN UP ORBITALS
  NO   OCC          E(Eh)            E(eV)
   0   1.0000     -10.186565      -277.1905
   1   1.0000     -10.176982      -276.9298
   2   1.0000     -10.176681      -276.9216
   3   1.0000     -10.176444      -276.9151
   4   1.0000     -10.175464      -276.8884
   5   1.0000     -10.175140      -276.8796
   6   1.0000     -10.175106      -276.8787
   7   1.0000     -10.174804      -276.8705
   8   1.0000     -10.174665      -276.8667
   9   1.0000     -10.173721      -276.8410
  10   1.0000     -10.173644      -276.8389
  11   1.0000     -10.173638      -276.8388
  12   1.0000     -10.173371      -276.8315
  13   1.0000     -10.172730      -276.8140
  14   1.0000     -10.170509      -276.7536
  15   1.0000     -10.169895      -276.7369
  16   1.0000     -10.169425      -276.7241
  17   1.0000     -10.167764      -276.6789
  18   1.0000     -10.165252      -276.6106
  19   1.0000     -10.162540      -276.5368
  20   1.0000      -0.838885       -22.8272
  21   1.0000      -0.808926       -22.0120
  22   1.0000      -0.798322       -21.7235
  23   1.0000      -0.772268       -21.0145
  24   1.0000      -0.759410       -20.6646
  25   1.0000      -0.748246       -20.3608
  26   1.0000      -0.709137       -19.2966
  27   1.0000      -0.705764       -19.2048
  28   1.0000      -0.672012       -18.2864
  29   1.0000      -0.665374       -18.1058
  30   1.0000      -0.665041       -18.0967
  31   1.0000      -0.663176       -18.0459
  32   1.0000      -0.627886       -17.0856
  33   1.0000      -0.614152       -16.7119
  34   1.0000      -0.571554       -15.5528
  35   1.0000      -0.564120       -15.3505
  36   1.0000      -0.544206       -14.8086
  37   1.0000      -0.515378       -14.0242
  38   1.0000      -0.501606       -13.6494
  39   1.0000      -0.479258       -13.0413
  40   1.0000      -0.470852       -12.8125
  41   1.0000      -0.466331       -12.6895
  42   1.0000      -0.458337       -12.4720
  43   1.0000      -0.449790       -12.2394
  44   1.0000      -0.436873       -11.8879
  45   1.0000      -0.434893       -11.8340
  46   1.0000      -0.427622       -11.6362
  47   1.0000      -0.423356       -11.5201
  48   1.0000      -0.417233       -11.3535
  49   1.0000      -0.407137       -11.0788
  50   1.0000      -0.404702       -11.0125
  51   1.0000      -0.399930       -10.8827
  52   1.0000      -0.394697       -10.7403
  53   1.0000      -0.389764       -10.6060
  54   1.0000      -0.388056       -10.5595
  55   1.0000      -0.384093       -10.4517
  56   1.0000      -0.377181       -10.2636
  57   1.0000      -0.371156       -10.0997
  58   1.0000      -0.366626        -9.9764
  59   1.0000      -0.364191        -9.9101
  60   1.0000      -0.358918        -9.7666
  61   1.0000      -0.353844        -9.6286
  62   1.0000      -0.349277        -9.5043
  63   1.0000      -0.341755        -9.2996
  64   1.0000      -0.338478        -9.2104
  65   1.0000      -0.336156        -9.1473
  66   1.0000      -0.334598        -9.1049
  67   1.0000      -0.328304        -8.9336
  68   1.0000      -0.318900        -8.6777
  69   1.0000      -0.315979        -8.5982
  70   1.0000      -0.304996        -8.2994
  71   1.0000      -0.301244        -8.1973
  72   1.0000      -0.291866        -7.9421
  73   1.0000      -0.279464        -7.6046
  74   1.0000      -0.230653        -6.2764
  75   1.0000      -0.211984        -5.7684
  76   1.0000      -0.166002        -4.5171
  77   0.0000       0.020353         0.5538
  78   0.0000       0.028273         0.7694
  79   0.0000       0.047931         1.3043
  80   0.0000       0.058126         1.5817
  81   0.0000       0.062041         1.6882

                 SPIN DOWN ORBITALS
  NO   OCC          E(Eh)            E(eV)
   0   1.0000     -10.186545      -277.1900
   1   1.0000     -10.176418      -276.9144
   2   1.0000     -10.176230      -276.9093
   3   1.0000     -10.175541      -276.8905
   4   1.0000     -10.175485      -276.8890
   5   1.0000     -10.175129      -276.8793
   6   1.0000     -10.174784      -276.8700
   7   1.0000     -10.174579      -276.8644
   8   1.0000     -10.174285      -276.8564
   9   1.0000     -10.173645      -276.8390
  10   1.0000     -10.173641      -276.8388
  11   1.0000     -10.173552      -276.8364
  12   1.0000     -10.173390      -276.8320
  13   1.0000     -10.170522      -276.7540
  14   1.0000     -10.169896      -276.7369
  15   1.0000     -10.169431      -276.7243
  16   1.0000     -10.167761      -276.6789
  17   1.0000     -10.164931      -276.6018
  18   1.0000     -10.162837      -276.5448
  19   1.0000     -10.162500      -276.5357
  20   1.0000      -0.838498       -22.8167
  21   1.0000      -0.805276       -21.9127
  22   1.0000      -0.792139       -21.5552
  23   1.0000      -0.771437       -20.9919
  24   1.0000      -0.757013       -20.5994
  25   1.0000      -0.746201       -20.3052
  26   1.0000      -0.706341       -19.2205
  27   1.0000      -0.705254       -19.1909
  28   1.0000      -0.671182       -18.2638
  29   1.0000      -0.665005       -18.0957
  30   1.0000      -0.664533       -18.0829
  31   1.0000      -0.662333       -18.0230
  32   1.0000      -0.625673       -17.0254
  33   1.0000      -0.613177       -16.6854
  34   1.0000      -0.569917       -15.5082
  35   1.0000      -0.563688       -15.3387
  36   1.0000      -0.542952       -14.7745
  37   1.0000      -0.507087       -13.7985
  38   1.0000      -0.497949       -13.5499
  39   1.0000      -0.478403       -13.0180
  40   1.0000      -0.469279       -12.7697
  41   1.0000      -0.464464       -12.6387
  42   1.0000      -0.455926       -12.4064
  43   1.0000      -0.446498       -12.1498
  44   1.0000      -0.435114       -11.8401
  45   1.0000      -0.433029       -11.7833
  46   1.0000      -0.426148       -11.5961
  47   1.0000      -0.422130       -11.4868
  48   1.0000      -0.415674       -11.3111
  49   1.0000      -0.404888       -11.0175
  50   1.0000      -0.401786       -10.9331
  51   1.0000      -0.397408       -10.8140
  52   1.0000      -0.393360       -10.7039
  53   1.0000      -0.388364       -10.5679
  54   1.0000      -0.386489       -10.5169
  55   1.0000      -0.382728       -10.4145
  56   1.0000      -0.376436       -10.2434
  57   1.0000      -0.370270       -10.0755
  58   1.0000      -0.365798        -9.9539
  59   1.0000      -0.363523        -9.8920
  60   1.0000      -0.357100        -9.7172
  61   1.0000      -0.353569        -9.6211
  62   1.0000      -0.348086        -9.4719
  63   1.0000      -0.340903        -9.2764
  64   1.0000      -0.336647        -9.1606
  65   1.0000      -0.334754        -9.1091
  66   1.0000      -0.333552        -9.0764
  67   1.0000      -0.326801        -8.8927
  68   1.0000      -0.317401        -8.6369
  69   1.0000      -0.314233        -8.5507
  70   1.0000      -0.303637        -8.2624
  71   1.0000      -0.299876        -8.1600
  72   1.0000      -0.291708        -7.9378
  73   1.0000      -0.278741        -7.5849
  74   1.0000      -0.228954        -6.2302
  75   1.0000      -0.210642        -5.7319
  76   0.0000      -0.031416        -0.8549
  77   0.0000       0.020601         0.5606
  78   0.0000       0.030154         0.8205
  79   0.0000       0.048445         1.3183
  80   0.0000       0.058171         1.5829

MULLIKEN ATOMIC CHARGES AND SPIN POPULATIONS
--------------------------------------------
   0 C :   -0.245496   -0.000524
   1 C :   -0.015633    0.002010
   2 C :   -0.245245    0.000847
   3 C :   -0.032870    0.000848
   4 C :    0.088282   -0.000098
   5 C :    0.098776    0.000094
   6 H :   -0.023296    0.000021
   7 H :   -0.010983    0.000006
   8 H :   -0.002795   -0.000063
   9 H :   -0.014064   -0.000029
  10 C :    0.093166    0.000095
  11 H :    0.012485    0.000030
  12 H :    0.016850   -0.000065
  13 H :   -0.003080    0.000010
  14 C :    0.166578   -0.001067
  15 C :    0.092867    0.023245
  16 C :   -0.070301    0.018199
  17 H :   -0.024123    0.000027
  18 C :    0.099198   -0.082503
  19 C :   -0.206304    0.971268
  20 H :   -0.015474    0.055768
  21 C :    0.106416    0.001476
  22 H :   -0.005580   -0.000034
  23 H :   -0.011513    0.000254
  24 C :    0.115518    0.000192
  25 H :   -0.007455    0.000059
  26 H :   -0.002791    0.000030
  27 H :   -0.005223   -0.000007
  28 H :   -0.004302    0.002903
  29 H :   -0.023398   -0.001136
  30 H :   -0.029344    0.002033
  31 C :    0.076548   -0.083042
  32 H :   -0.007549    0.070302
  33 C :    0.023215    0.014093
  34 H :   -0.014334   -0.000068
  35 H :   -0.012451   -0.000868
  36 C :    0.102658    0.002193
  37 H :   -0.023125    0.000293
  38 H :   -0.007610   -0.000315
  39 C :   -0.158031   -0.008952
  40 H :   -0.015463    0.004493
  41 H :   -0.035648   -0.000584
  42 C :    0.074739   -0.080977
  43 H :    0.000030    0.065095
  44 H :    0.001556    0.003966
  45 H :    0.006083    0.019473
  46 C :    0.106414    0.001356
  47 H :    0.007017   -0.000237
  48 H :    0.005546   -0.000721
  49 H :    0.000129   -0.000007
  50 H :   -0.011008    0.000857
  51 H :   -0.033276    0.000209
  52 H :    0.023692   -0.000446
Sum of atomic charges         :    0.0000000

LOEWDIN ATOMIC CHARGES AND SPIN POPULATIONS
-------------------------------------------
   0 C :   -0.051181   -0.000748
   1 C :   -0.026561    0.000675
   2 C :   -0.035810    0.000775
   3 C :   -0.015826    0.000885
   4 C :   -0.024349   -0.000001
   5 C :   -0.028682   -0.000014
   6 H :    0.017216    0.000021
   7 H :    0.018158    0.000011
   8 H :    0.020432   -0.000058
   9 H :    0.022595   -0.000025
  10 C :   -0.049135    0.000067
  11 H :    0.024144    0.000044
  12 H :    0.029064   -0.000042
  13 H :    0.023915    0.000012
  14 C :   -0.027223   -0.000150
  15 C :   -0.023904    0.026490
  16 C :   -0.046095    0.015092
  17 H :    0.019189    0.000014
  18 C :   -0.029265   -0.010676
  19 C :   -0.029640    0.802888
  20 H :    0.021352    0.043492
  21 C :   -0.039117    0.001377
  22 H :    0.014415    0.000001
  23 H :    0.018817    0.000234
  24 C :   -0.034836    0.000131
  25 H :    0.018685    0.000092
  26 H :    0.016588    0.000021
  27 H :    0.016705    0.000002
  28 H :    0.025384    0.001640
  29 H :    0.016233   -0.000195
  30 H :    0.018021    0.000643
  31 C :   -0.036388   -0.011327
  32 H :    0.023348    0.055304
  33 C :   -0.028966    0.014930
  34 H :    0.020657   -0.000194
  35 H :    0.014837   -0.000288
  36 C :   -0.020633    0.000187
  37 H :    0.019490    0.000093
  38 H :    0.023424   -0.000123
  39 C :   -0.041363   -0.003375
  40 H :    0.019712    0.003490
  41 H :    0.016688    0.000216
  42 C :   -0.060837   -0.012856
  43 H :    0.024359    0.050860
  44 H :    0.023286    0.002799
  45 H :    0.022113    0.015868
  46 C :   -0.050865    0.000238
  47 H :    0.029640   -0.000204
  48 H :    0.024297   -0.000202
  49 H :    0.023040   -0.000002
  50 H :    0.028653    0.000746
  51 H :    0.018481    0.000151
  52 H :    0.027737    0.000990

  Mayer bond orders larger than 0.100000
B(  0-C ,  1-C ) :   1.8767 B(  0-C ,  5-C ) :   1.0402 B(  0-C , 10-C ) :   1.1047
B(  1-C ,  2-C ) :   0.9476 B(  1-C , 15-C ) :   1.0559 B(  2-C ,  3-C ) :   0.9930
B(  2-C , 21-C ) :   1.0725 B(  2-C , 24-C ) :   1.0376 B(  3-C ,  4-C ) :   1.0656
B(  3-C , 14-C ) :   1.0547 B(  3-C , 51-H ) :   0.8886 B(  4-C ,  5-C ) :   1.1007
B(  4-C ,  6-H ) :   0.9157 B(  4-C ,  7-H ) :   0.9310 B(  5-C ,  8-H ) :   0.9080
B(  5-C ,  9-H ) :   0.9105 B( 10-C , 11-H ) :   0.9398 B( 10-C , 12-H ) :   0.9441
B( 10-C , 13-H ) :   0.9418 B( 14-C , 16-C ) :   1.0659 B( 14-C , 17-H ) :   0.9064
B( 14-C , 50-H ) :   0.8968 B( 15-C , 18-C ) :   1.0863 B( 15-C , 28-H ) :   0.9058
B( 15-C , 29-H ) :   0.9144 B( 16-C , 39-C ) :   1.8755 B( 16-C , 41-H ) :   0.9396
B( 18-C , 19-C ) :   1.0710 B( 18-C , 20-H ) :   0.8978 B( 18-C , 30-H ) :   0.9206
B( 19-C , 31-C ) :   1.0817 B( 19-C , 42-C ) :   1.0888 B( 21-C , 22-H ) :   0.9455
B( 21-C , 23-H ) :   0.9416 B( 21-C , 52-H ) :   0.9428 B( 24-C , 25-H ) :   0.9534
B( 24-C , 26-H ) :   0.9580 B( 24-C , 27-H ) :   0.9553 B( 31-C , 32-H ) :   0.9002
B( 31-C , 33-C ) :   1.0812 B( 31-C , 40-H ) :   0.9218 B( 33-C , 34-H ) :   0.9225
B( 33-C , 35-H ) :   0.9373 B( 33-C , 36-C ) :   1.0814 B( 36-C , 37-H ) :   0.9199
B( 36-C , 38-H ) :   0.9182 B( 36-C , 39-C ) :   1.0614 B( 39-C , 46-C ) :   1.0834
B( 42-C , 43-H ) :   0.9233 B( 42-C , 44-H ) :   0.9546 B( 42-C , 45-H ) :   0.9500
B( 46-C , 47-H ) :   0.9376 B( 46-C , 48-H ) :   0.9407 B( 46-C , 49-H ) :   0.9453

Dispersion correction           -0.119860059
FINAL SINGLE POINT ENERGY      -780.921974564263
Dispersion correction             ... done (  0.0 sec)

DIPOLE MOMENT
-------------

Method             : SCF
Type of density    : Electron Density
Multiplicity       :   2
Irrep              :   0
Energy             :  -780.8021145051342273 Eh
Basis              : AO
                                X                 Y                 Z
Electronic contribution:     -2.917789639      -2.199850910      -3.338783885
Nuclear contribution   :      3.005936982       2.248936770       3.334625447
                        -----------------------------------------
Total Dipole Moment    :      0.088147343       0.049085859      -0.004158438
                        -----------------------------------------
Magnitude (a.u.)       :      0.100978554
Magnitude (Debye)      :      0.256667085

Rotational constants in cm-1:             0.014900             0.010180             0.008857
Rotational constants in MHz :           446.703970           305.190056           265.531276

                             ****ORCA TERMINATED NORMALLY****
TOTAL RUN TIME: 0 days 0 hours 2 minutes 5 seconds 392 msec
