                         Program Version 6.1.0  -  RELEASE   -
|  1> ! B3LYP def2-SVP d3 EnGrad
|  2> %pal nprocs 6 end
|  3> *xyz 0 1
|  4> C   -1.03116218882737 -0.84198810294744 -4.73611408335936
|  5> O   0.02529072100854 -1.55278148199842 -5.25873380816838
|  6> C   -0.09925602949816 -0.19716047800785 -5.65718399765059
|  7> F   -0.98327583115577 -0.5696156612517 -3.4404060521928
|  8> F   -2.2476464673575 -1.24570160937506 -5.06860856342987
|  9> C   -0.3391824978102 0.05415717630332 -7.14539931759059
| 10> F   0.83087863026519 0.63434854661904 -5.17626731370155
| 11> F   0.78335444783359 -0.16694466684749 -7.83086523152225
| 12> F   -1.29205908617353 -0.74803317403435 -7.61494943974299
| 13> F   -0.71156269828482 1.32304045153996 -7.32803119264159
| 14> *
| 15>
| 16>                          ****END OF INPUT****

CARTESIAN COORDINATES (ANGSTROEM)
---------------------------------
  C     -1.031162   -0.841988   -4.736114
  O      0.025291   -1.552781   -5.258734
  C     -0.099256   -0.197160   -5.657184
  F     -0.983276   -0.569616   -3.440406
  F     -2.247646   -1.245702   -5.068609
  C     -0.339182    0.054157   -7.145399
  F      0.830879    0.634349   -5.176267
  F      0.783354   -0.166945   -7.830865
  F     -1.292059   -0.748033   -7.614949
  F     -0.711563    1.323040   -7.328031

 Total Charge           Charge          ....    0
 Multiplicity           Mult            ....    1
 Number of Electrons    NEL             ....   80
 Basis Dimension        Dim             ....  140

ORBITAL ENERGIES
----------------

  NO   OCC          E(Eh)            E(eV)
   0   2.0000     -24.751190      -673.5141
   1   2.0000     -24.750518      -673.4958
   2   2.0000     -24.749344      -673.4639
   3   2.0000     -24.748778      -673.4485
   4   2.0000     -24.747793      -673.4217
   5   2.0000     -24.745863      -673.3692
   6   2.0000     -19.225689      -523.1576
   7   2.0000     -10.470685      -284.9218
   8   2.0000     -10.444009      -284.1959
   9   2.0000     -10.381386      -282.4919
  10   2.0000      -1.335317       -36.3358
  11   2.0000      -1.312608       -35.7179
  12   2.0000      -1.266509       -34.4635
  13   2.0000      -1.241411       -33.7805
  14   2.0000      -1.239293       -33.7229
  15   2.0000      -1.238225       -33.6938
  16   2.0000      -1.155926       -31.4543
  17   2.0000      -0.790921       -21.5221
  18   2.0000      -0.718298       -19.5459
  19   2.0000      -0.688624       -18.7384
  20   2.0000      -0.651768       -17.7355
  21   2.0000      -0.638255       -17.3678
  22   2.0000      -0.627089       -17.0640
  23   2.0000      -0.614957       -16.7338
  24   2.0000      -0.593768       -16.1572
  25   2.0000      -0.577580       -15.7167
  26   2.0000      -0.529570       -14.4103
  27   2.0000      -0.503938       -13.7129
  28   2.0000      -0.498509       -13.5651
  29   2.0000      -0.494272       -13.4498
  30   2.0000      -0.489005       -13.3065
  31   2.0000      -0.476387       -12.9632
  32   2.0000      -0.469344       -12.7715
  33   2.0000      -0.459928       -12.5153
  34   2.0000      -0.456865       -12.4319
  35   2.0000      -0.447439       -12.1754
  36   2.0000      -0.438618       -11.9354
  37   2.0000      -0.417961       -11.3733
  38   2.0000      -0.380515       -10.3543
  39   2.0000      -0.352056        -9.5799
  40   0.0000       0.038314         1.0426
  41   0.0000       0.063173         1.7190
  42   0.0000       0.126574         3.4442
  43   0.0000       0.127821         3.4782
  44   0.0000       0.163928         4.4607

MULLIKEN ATOMIC CHARGES
-----------------------
   0 C :    0.428610
   1 O :   -0.234755
   2 C :    0.108030
   3 F :   -0.133519
   4 F :   -0.129521
   5 C :    0.557338
   6 F :   -0.159453
   7 F :   -0.147807
   8 F :   -0.140686
   9 F :   -0.148237
Sum of atomic charges:   -0.0000000

LOEWDIN ATOMIC CHARGES
----------------------
   0 C :    0.117381
   1 O :   -0.086635
   2 C :    0.040575
   3 F :   -0.028350
   4 F :   -0.030172
   5 C :    0.138495
   6 F :   -0.039048
   7 F :   -0.036914
   8 F :   -0.034896
   9 F :   -0.040436

  Mayer bond orders larger than 0.100000
B(  0-C ,  1-O ) :   1.0728 B(  0-C ,  2-C ) :   0.9250 B(  0-C ,  3-F ) :   1.1830
B(  0-C ,  4-F ) :   1.1888 B(  1-O ,  2-C ) :   0.9249 B(  2-C ,  5-C ) :   0.8832
B(  2-C ,  6-F ) :   1.1284 B(  5-C ,  7-F ) :   1.1632 B(  5-C ,  8-F ) :   1.1772
B(  5-C ,  9-F ) :   1.1659

Dispersion correction           -0.011922131
FINAL SINGLE POINT ENERGY      -787.654921466813
Dispersion correction             ... done (  0.1 sec)

DIPOLE MOMENT
-------------

Method             : SCF
Type of density    : Electron Density
Multiplicity       :   1
Irrep              :   0
Energy             :  -787.6429993358672164 Eh
Basis              : AO
                                X                 Y                 Z
Electronic contribution:     -0.631609868       1.172487879      -0.692551874
Nuclear contribution   :      0.481804761      -1.021974011       0.726161630
                        -----------------------------------------
Total Dipole Moment    :     -0.149805107       0.150513867       0.033609756
                        -----------------------------------------
Magnitude (a.u.)       :      0.215001419
Magnitude (Debye)      :      0.546490177

Rotational constants in cm-1:             0.073566             0.036694             0.031154
Rotational constants in MHz :          2205.465340          1100.043523           933.974799

                             ****ORCA TERMINATED NORMALLY****
TOTAL RUN TIME: 0 days 0 hours 0 minutes 16 seconds 216 msec
