                         Program Version 6.1.0  -  RELEASE   -
|  1> ! B3LYP def2-SVP d3 EnGrad
|  2> %pal nprocs 6 end
|  3> *xyz 0 1
|  4> C   1.62723195777086 0.4771972402335 0.17397916426603
|  5> C   0.2077574559859 0.95361724704969 -0.02663244505998
|  6> H   2.30312056886685 1.33080957715509 0.33935518281948
|  7> H   2.02675948055907 -0.08337414560623 -0.69474813883363
|  8> H   1.71753858302181 -0.17884995605449 1.05609909600868
|  9> C   -0.93023415957471 0.09443909297854 -0.01030354990732
| 10> O   -1.97918644935823 0.76600173899161 0.30844560606038
| 11> C   -1.00039572441972 -1.38279714025264 -0.2077636851728
| 12> H   -0.3766512970859 -1.71271259838162 -1.05218318587222
| 13> H   -2.04338086022655 -1.70309475181054 -0.33755640892649
| 14> H   -0.60502219395461 -1.87330017866588 0.69926823272399
| 15> H   -1.02536847068757 1.59831181395895 0.56729024262402
| 16> H   0.07783110910282 1.71375206040404 -0.81525011073013
| 17> *
| 18>
| 19>                          ****END OF INPUT****

CARTESIAN COORDINATES (ANGSTROEM)
---------------------------------
  C      1.627232    0.477197    0.173979
  C      0.207757    0.953617   -0.026632
  H      2.303121    1.330810    0.339355
  H      2.026759   -0.083374   -0.694748
  H      1.717539   -0.178850    1.056099
  C     -0.930234    0.094439   -0.010304
  O     -1.979186    0.766002    0.308446
  C     -1.000396   -1.382797   -0.207764
  H     -0.376651   -1.712713   -1.052183
  H     -2.043381   -1.703095   -0.337556
  H     -0.605022   -1.873300    0.699268
  H     -1.025368    1.598312    0.567290
  H      0.077831    1.713752   -0.815250

 Total Charge           Charge          ....    0
 Multiplicity           Mult            ....    1
 Number of Electrons    NEL             ....   40
 Basis Dimension        Dim             ....  110

ORBITAL ENERGIES
----------------

  NO   OCC          E(Eh)            E(eV)
   0   2.0000     -19.139069      -520.8005
   1   2.0000     -10.274704      -279.5889
   2   2.0000     -10.204436      -277.6768
   3   2.0000     -10.180342      -277.0212
   4   2.0000     -10.161388      -276.5054
   5   2.0000      -1.043151       -28.3856
   6   2.0000      -0.768851       -20.9215
   7   2.0000      -0.730906       -19.8890
   8   2.0000      -0.644754       -17.5447
   9   2.0000      -0.533338       -14.5129
  10   2.0000      -0.481057       -13.0902
  11   2.0000      -0.456033       -12.4093
  12   2.0000      -0.448478       -12.2037
  13   2.0000      -0.409162       -11.1339
  14   2.0000      -0.397712       -10.8223
  15   2.0000      -0.393470       -10.7069
  16   2.0000      -0.378176       -10.2907
  17   2.0000      -0.344509        -9.3746
  18   2.0000      -0.310922        -8.4606
  19   2.0000      -0.204914        -5.5760
  20   0.0000      -0.032787        -0.8922
  21   0.0000       0.051163         1.3922
  22   0.0000       0.081107         2.2070
  23   0.0000       0.100538         2.7358
  24   0.0000       0.104753         2.8505

MULLIKEN ATOMIC CHARGES
-----------------------
   0 C :    0.059708
   1 C :   -0.281957
   2 H :    0.015761
   3 H :    0.005720
   4 H :    0.008990
   5 C :    0.031512
   6 O :   -0.261738
   7 C :    0.078032
   8 H :    0.036394
   9 H :    0.037539
  10 H :    0.050666
  11 H :    0.177661
  12 H :    0.041714
Sum of atomic charges:   -0.0000000

LOEWDIN ATOMIC CHARGES
----------------------
   0 C :   -0.063650
   1 C :   -0.236806
   2 H :    0.031673
   3 H :    0.017012
   4 H :    0.021401
   5 C :    0.107921
   6 O :   -0.149905
   7 C :   -0.061565
   8 H :    0.041276
   9 H :    0.044590
  10 H :    0.057851
  11 H :    0.141335
  12 H :    0.048868

  Mayer bond orders larger than 0.100000
B(  0-C ,  1-C ) :   1.0573 B(  0-C ,  2-H ) :   0.9580 B(  0-C ,  3-H ) :   0.9546
B(  0-C ,  4-H ) :   0.9739 B(  1-C ,  5-C ) :   1.2372 B(  1-C , 11-H ) :   0.4227
B(  1-C , 12-H ) :   0.9081 B(  5-C ,  6-O ) :   1.5719 B(  5-C ,  7-C ) :   1.0995
B(  6-O , 11-H ) :   0.5063 B(  7-C ,  8-H ) :   0.9484 B(  7-C ,  9-H ) :   0.9416
B(  7-C , 10-H ) :   0.9334

Dispersion correction           -0.014973675
FINAL SINGLE POINT ENERGY      -232.061525120835
Dispersion correction             ... done (  0.0 sec)

DIPOLE MOMENT
-------------

Method             : SCF
Type of density    : Electron Density
Multiplicity       :   1
Irrep              :   0
Energy             :  -232.0465514460038889 Eh
Basis              : AO
                                X                 Y                 Z
Electronic contribution:     -4.698471967       1.590853342       0.372980171
Nuclear contribution   :      5.121382110      -2.202039676      -0.619550377
                        -----------------------------------------
Total Dipole Moment    :      0.422910143      -0.611186333      -0.246570205
                        -----------------------------------------
Magnitude (a.u.)       :      0.783069977
Magnitude (Debye)      :      1.990405702

Rotational constants in cm-1:             0.264388             0.128329             0.091427
Rotational constants in MHz :          7926.143137          3847.211414          2740.906673

                             ****ORCA TERMINATED NORMALLY****
TOTAL RUN TIME: 0 days 0 hours 0 minutes 13 seconds 464 msec
