                         Program Version 6.1.0  -  RELEASE   -
|  1> ! B3LYP def2-SVP d3 EnGrad
|  2> %pal nprocs 6 end
|  3> *xyz 0 1
|  4> C   2.44537605978403 0.58243355430195 0.19472988649768
|  5> C   1.49412670548446 0.08355755413855 -0.9054738106582
|  6> C   0.08710480416195 -0.08874178226675 -0.36001141539645
|  7> C   -0.26680698572319 -1.42185453688859 0.25727942422258
|  8> O   -0.70689376956427 0.83488134963717 -0.40367546261817
|  9> H   3.46107415688089 0.72496954787478 -0.20465754946784
| 10> H   2.51162308964334 -0.13254293361716 1.03097666156602
| 11> H   2.0986147997167 1.54679012481647 0.5977245454935
| 12> H   0.539797626451 -1.77553780844949 0.919811462553
| 13> H   -0.36446623882027 -2.16900586145206 -0.54998314689394
| 14> H   -1.22067934209896 -1.34071466121856 0.7958938633219
| 15> H   1.44789734266118 0.82017184209504 -1.72218131004105
| 16> H   1.85991369716857 -0.87332270330479 -1.31364610476736
| 17> H   -2.37035814109232 0.48875952288671 0.4751213488681
| 18> O   -3.02186575449884 0.10426179010733 1.09343576632966
| 19> H   -2.77271605015426 0.5054900013394 1.93730984099055
| 20> *
| 21>
| 22>                          ****END OF INPUT****

CARTESIAN COORDINATES (ANGSTROEM)
---------------------------------
  C      2.445376    0.582434    0.194730
  C      1.494127    0.083558   -0.905474
  C      0.087105   -0.088742   -0.360011
  C     -0.266807   -1.421855    0.257279
  O     -0.706894    0.834881   -0.403675
  H      3.461074    0.724970   -0.204658
  H      2.511623   -0.132543    1.030977
  H      2.098615    1.546790    0.597725
  H      0.539798   -1.775538    0.919811
  H     -0.364466   -2.169006   -0.549983
  H     -1.220679   -1.340715    0.795894
  H      1.447897    0.820172   -1.722181
  H      1.859914   -0.873323   -1.313646
  H     -2.370358    0.488760    0.475121
  O     -3.021866    0.104262    1.093436
  H     -2.772716    0.505490    1.937310

 Total Charge           Charge          ....    0
 Multiplicity           Mult            ....    1
 Number of Electrons    NEL             ....   50
 Basis Dimension        Dim             ....  134

ORBITAL ENERGIES
----------------

  NO   OCC          E(Eh)            E(eV)
   0   2.0000     -19.137196      -520.7496
   1   2.0000     -19.095150      -519.6054
   2   2.0000     -10.283241      -279.8212
   3   2.0000     -10.201264      -277.5905
   4   2.0000     -10.200115      -277.5592
   5   2.0000     -10.191410      -277.3224
   6   2.0000      -1.041723       -28.3467
   7   2.0000      -0.953271       -25.9398
   8   2.0000      -0.789863       -21.4933
   9   2.0000      -0.730864       -19.8878
  10   2.0000      -0.645084       -17.5536
  11   2.0000      -0.532780       -14.4977
  12   2.0000      -0.490931       -13.3589
  13   2.0000      -0.475613       -12.9421
  14   2.0000      -0.471078       -12.8187
  15   2.0000      -0.451482       -12.2855
  16   2.0000      -0.427338       -11.6285
  17   2.0000      -0.408280       -11.1099
  18   2.0000      -0.392701       -10.6859
  19   2.0000      -0.377744       -10.2789
  20   2.0000      -0.362178        -9.8554
  21   2.0000      -0.355078        -9.6622
  22   2.0000      -0.344497        -9.3742
  23   2.0000      -0.272069        -7.4034
  24   2.0000      -0.259460        -7.0603
  25   0.0000      -0.029494        -0.8026
  26   0.0000       0.045295         1.2325
  27   0.0000       0.079869         2.1734
  28   0.0000       0.088342         2.4039
  29   0.0000       0.095251         2.5919

MULLIKEN ATOMIC CHARGES
-----------------------
   0 C :   -0.017766
   1 C :    0.041724
   2 C :   -0.017481
   3 C :    0.032924
   4 O :   -0.237004
   5 H :    0.029045
   6 H :    0.017334
   7 H :    0.030554
   8 H :    0.024077
   9 H :    0.040987
  10 H :    0.022130
  11 H :    0.023223
  12 H :    0.009854
  13 H :    0.153725
  14 O :   -0.294752
  15 H :    0.141424
Sum of atomic charges:   -0.0000000

LOEWDIN ATOMIC CHARGES
----------------------
   0 C :   -0.043389
   1 C :   -0.055241
   2 C :    0.102595
   3 C :   -0.081942
   4 O :   -0.148706
   5 H :    0.030518
   6 H :    0.022770
   7 H :    0.029572
   8 H :    0.036086
   9 H :    0.049502
  10 H :    0.030518
  11 H :    0.036233
  12 H :    0.027692
  13 H :    0.046494
  14 O :   -0.152217
  15 H :    0.069519

  Mayer bond orders larger than 0.100000
B(  0-C ,  1-C ) :   1.0939 B(  0-C ,  5-H ) :   0.9676 B(  0-C ,  6-H ) :   0.9709
B(  0-C ,  7-H ) :   0.9692 B(  1-C ,  2-C ) :   0.9935 B(  1-C , 11-H ) :   0.9254
B(  1-C , 12-H ) :   0.9365 B(  2-C ,  3-C ) :   1.0394 B(  2-C ,  4-O ) :   2.0390
B(  3-C ,  8-H ) :   0.9457 B(  3-C ,  9-H ) :   0.9333 B(  3-C , 10-H ) :   0.9221
B(  4-O , 13-H ) :   0.1093 B( 10-H , 14-O ) :   0.1390 B( 13-H , 14-O ) :   0.9509
B( 14-O , 15-H ) :   1.0066

Dispersion correction           -0.018112438
FINAL SINGLE POINT ENERGY      -308.505358565740
Dispersion correction             ... done (  0.0 sec)

DIPOLE MOMENT
-------------

Method             : SCF
Type of density    : Electron Density
Multiplicity       :   1
Irrep              :   0
Energy             :  -308.4872461274569559 Eh
Basis              : AO
                                X                 Y                 Z
Electronic contribution:     -4.263908075       2.030380638      -1.397929235
Nuclear contribution   :      5.782205632      -2.332330744       1.515930701
                        -----------------------------------------
Total Dipole Moment    :      1.518297557      -0.301950106       0.118001466
                        -----------------------------------------
Magnitude (a.u.)       :      1.552522362
Magnitude (Debye)      :      3.946198235

Rotational constants in cm-1:             0.204367             0.049142             0.045690
Rotational constants in MHz :          6126.783193          1473.247551          1369.745574

                             ****ORCA TERMINATED NORMALLY****
TOTAL RUN TIME: 0 days 0 hours 0 minutes 16 seconds 745 msec
