                         Program Version 6.1.0  -  RELEASE   -
|  1> ! B3LYP def2-SVP d3 EnGrad
|  2> %pal nprocs 6 end
|  3> *xyz 0 1
|  4> H   -1.06236375421557 0.79633741020268 -1.52115564118515
|  5> C   -0.63288771186245 1.4924371066908 -0.79630654381914
|  6> C   0.34992221035385 1.12845259820694 0.03318792995873
|  7> H   -1.01232543314003 2.51490897850029 -0.77160150664453
|  8> H   0.80185880504158 1.82840996312495 0.74666327589775
|  9> O   0.90100957557601 -0.11447105712999 0.08210131217753
| 10> H   1.05028681909029 -0.74768044150262 1.11490752331111
| 11> O   0.51806707919197 -1.86323022260459 1.35938412892083
| 12> C   -0.06053247755463 -1.63244404772443 0.23595814329863
| 13> H   -1.09074733041863 -1.21688844828112 0.19522112469457
| 14> H   0.2377122179376 -2.18583183948292 -0.67835974661035
| 15> *
| 16>
| 17>                          ****END OF INPUT****

CARTESIAN COORDINATES (ANGSTROEM)
---------------------------------
  H     -1.062364    0.796337   -1.521156
  C     -0.632888    1.492437   -0.796307
  C      0.349922    1.128453    0.033188
  H     -1.012325    2.514909   -0.771602
  H      0.801859    1.828410    0.746663
  O      0.901010   -0.114471    0.082101
  H      1.050287   -0.747680    1.114908
  O      0.518067   -1.863230    1.359384
  C     -0.060532   -1.632444    0.235958
  H     -1.090747   -1.216888    0.195221
  H      0.237712   -2.185832   -0.678360

 Total Charge           Charge          ....    0
 Multiplicity           Mult            ....    1
 Number of Electrons    NEL             ....   40
 Basis Dimension        Dim             ....  100

ORBITAL ENERGIES
----------------

  NO   OCC          E(Eh)            E(eV)
   0   2.0000     -19.175056      -521.7798
   1   2.0000     -19.114363      -520.1282
   2   2.0000     -10.309097      -280.5248
   3   2.0000     -10.251070      -278.9458
   4   2.0000     -10.183552      -277.1085
   5   2.0000      -1.071676       -29.1618
   6   2.0000      -0.996148       -27.1066
   7   2.0000      -0.746944       -20.3254
   8   2.0000      -0.651274       -17.7221
   9   2.0000      -0.602242       -16.3878
  10   2.0000      -0.536118       -14.5885
  11   2.0000      -0.496680       -13.5154
  12   2.0000      -0.471522       -12.8308
  13   2.0000      -0.441078       -12.0023
  14   2.0000      -0.421330       -11.4650
  15   2.0000      -0.392908       -10.6916
  16   2.0000      -0.355171        -9.6647
  17   2.0000      -0.334751        -9.1090
  18   2.0000      -0.265579        -7.2268
  19   2.0000      -0.243660        -6.6303
  20   0.0000      -0.028254        -0.7688
  21   0.0000       0.020160         0.5486
  22   0.0000       0.067225         1.8293
  23   0.0000       0.076418         2.0794
  24   0.0000       0.104426         2.8416

MULLIKEN ATOMIC CHARGES
-----------------------
   0 H :    0.021569
   1 C :   -0.071551
   2 C :    0.122579
   3 H :    0.029813
   4 H :    0.023245
   5 O :   -0.372867
   6 H :    0.254722
   7 O :   -0.369960
   8 C :    0.317225
   9 H :    0.018222
  10 H :    0.027003
Sum of atomic charges:    0.0000000

LOEWDIN ATOMIC CHARGES
----------------------
   0 H :    0.024273
   1 C :   -0.122925
   2 C :    0.045664
   3 H :    0.032700
   4 H :    0.024043
   5 O :   -0.112234
   6 H :    0.102572
   7 O :   -0.239382
   8 C :    0.240484
   9 H :   -0.000136
  10 H :    0.004941

  Mayer bond orders larger than 0.100000
B(  0-H ,  1-C ) :   0.9539 B(  1-C ,  2-C ) :   1.9307 B(  1-C ,  3-H ) :   0.9497
B(  2-C ,  4-H ) :   0.9605 B(  2-C ,  5-O ) :   1.0496 B(  5-O ,  6-H ) :   0.4943
B(  5-O ,  8-C ) :   0.5368 B(  6-H ,  7-O ) :   0.4883 B(  7-O ,  8-C ) :   1.4615
B(  8-C ,  9-H ) :   0.9125 B(  8-C , 10-H ) :   0.9233

Dispersion correction           -0.011381537
FINAL SINGLE POINT ENERGY      -267.925412948691
Dispersion correction             ... done (  0.0 sec)

DIPOLE MOMENT
-------------

Method             : SCF
Type of density    : Electron Density
Multiplicity       :   1
Irrep              :   0
Energy             :  -267.9140314114380317 Eh
Basis              : AO
                                X                 Y                 Z
Electronic contribution:      1.955948162      -1.912859384       1.632107825
Nuclear contribution   :     -2.324391259       2.332763974      -2.044071144
                        -----------------------------------------
Total Dipole Moment    :     -0.368443097       0.419904590      -0.411963319
                        -----------------------------------------
Magnitude (a.u.)       :      0.694106589
Magnitude (Debye)      :      1.764278739

Rotational constants in cm-1:             0.482571             0.093541             0.084930
Rotational constants in MHz :         14467.108271          2804.296005          2546.149262

                             ****ORCA TERMINATED NORMALLY****
TOTAL RUN TIME: 0 days 0 hours 0 minutes 12 seconds 124 msec
