                         Program Version 6.1.0  -  RELEASE   -
|  1> ! B3LYP def2-SVP d3 EnGrad
|  2> %pal nprocs 6 end
|  3> *xyz 0 1
|  4> C   -1.3802927801013 -0.22530938843005 -0.40383302046677
|  5> C   1.70956448819009 0.02807187729487 -0.2178199388592
|  6> C   -2.25787732047847 0.70390047121233 -0.02156376134965
|  7> C   -0.37703863607418 -0.87817572406434 0.50672101532507
|  8> C   1.47563431635712 1.3008343242136 0.12837409863688
|  9> H   -3.00179585622068 1.10946795966067 -0.71263914873602
| 10> H   -2.26637204250426 1.09502472909735 1.00192590502659
| 11> H   -0.28859082718492 -0.3250420295995 1.46033771111778
| 12> H   0.53013004503789 1.65001320577869 0.54284704720979
| 13> H   -0.70851141665644 -1.9036366484112 0.74104497679541
| 14> H   2.26466398345869 2.03769616867356 -0.03006576186813
| 15> H   -1.37940126073082 -0.59824099324369 -1.43530254216038
| 16> H   2.66334186898814 -0.27876027161356 -0.65932194779825
| 17> O   0.89878443791917 -1.04834868056868 -0.09464463287308
| 18> *
| 19>
| 20>                          ****END OF INPUT****

CARTESIAN COORDINATES (ANGSTROEM)
---------------------------------
  C     -1.380293   -0.225309   -0.403833
  C      1.709564    0.028072   -0.217820
  C     -2.257877    0.703900   -0.021564
  C     -0.377039   -0.878176    0.506721
  C      1.475634    1.300834    0.128374
  H     -3.001796    1.109468   -0.712639
  H     -2.266372    1.095025    1.001926
  H     -0.288591   -0.325042    1.460338
  H      0.530130    1.650013    0.542847
  H     -0.708511   -1.903637    0.741045
  H      2.264664    2.037696   -0.030066
  H     -1.379401   -0.598241   -1.435303
  H      2.663342   -0.278760   -0.659322
  O      0.898784   -1.048349   -0.094645

 Total Charge           Charge          ....    0
 Multiplicity           Mult            ....    1
 Number of Electrons    NEL             ....   46
 Basis Dimension        Dim             ....  124

ORBITAL ENERGIES
----------------

  NO   OCC          E(Eh)            E(eV)
   0   2.0000     -19.159125      -521.3463
   1   2.0000     -10.245078      -278.7827
   2   2.0000     -10.236010      -278.5360
   3   2.0000     -10.195989      -277.4470
   4   2.0000     -10.191003      -277.3113
   5   2.0000     -10.165564      -276.6191
   6   2.0000      -1.052163       -28.6308
   7   2.0000      -0.788562       -21.4579
   8   2.0000      -0.740697       -20.1554
   9   2.0000      -0.684735       -18.6326
  10   2.0000      -0.582526       -15.8513
  11   2.0000      -0.550402       -14.9772
  12   2.0000      -0.512272       -13.9396
  13   2.0000      -0.474049       -12.8995
  14   2.0000      -0.460521       -12.5314
  15   2.0000      -0.443715       -12.0741
  16   2.0000      -0.410146       -11.1606
  17   2.0000      -0.382182       -10.3997
  18   2.0000      -0.376839       -10.2543
  19   2.0000      -0.339891        -9.2489
  20   2.0000      -0.328210        -8.9310
  21   2.0000      -0.271599        -7.3906
  22   2.0000      -0.227580        -6.1928
  23   0.0000      -0.002178        -0.0593
  24   0.0000       0.036606         0.9961
  25   0.0000       0.073497         1.9999
  26   0.0000       0.086724         2.3599
  27   0.0000       0.091947         2.5020

MULLIKEN ATOMIC CHARGES
-----------------------
   0 C :   -0.101059
   1 C :    0.133724
   2 C :   -0.019838
   3 C :    0.261871
   4 C :   -0.102129
   5 H :    0.028043
   6 H :    0.019009
   7 H :    0.005908
   8 H :    0.021096
   9 H :    0.025063
  10 H :    0.019435
  11 H :    0.014970
  12 H :    0.010886
  13 O :   -0.316979
Sum of atomic charges:    0.0000000

LOEWDIN ATOMIC CHARGES
----------------------
   0 C :   -0.037876
   1 C :    0.052389
   2 C :   -0.049795
   3 C :    0.085469
   4 C :   -0.149321
   5 H :    0.027437
   6 H :    0.021898
   7 H :    0.015591
   8 H :    0.021182
   9 H :    0.032765
  10 H :    0.029650
  11 H :    0.030147
  12 H :    0.023028
  13 O :   -0.102564

  Mayer bond orders larger than 0.100000
B(  0-C ,  2-C ) :   2.0002 B(  0-C ,  3-C ) :   1.0429 B(  0-C , 11-H ) :   0.9578
B(  1-C ,  4-C ) :   1.8864 B(  1-C , 12-H ) :   0.9711 B(  1-C , 13-O ) :   1.1240
B(  2-C ,  5-H ) :   0.9494 B(  2-C ,  6-H ) :   0.9528 B(  3-C ,  7-H ) :   0.9421
B(  3-C ,  9-H ) :   0.9334 B(  3-C , 13-O ) :   0.9558 B(  4-C ,  8-H ) :   0.9558
B(  4-C , 10-H ) :   0.9438

Dispersion correction           -0.018067974
FINAL SINGLE POINT ENERGY      -270.159884432622
Dispersion correction             ... done (  0.0 sec)

DIPOLE MOMENT
-------------

Method             : SCF
Type of density    : Electron Density
Multiplicity       :   1
Irrep              :   0
Energy             :  -270.1418164584426336 Eh
Basis              : AO
                                X                 Y                 Z
Electronic contribution:      1.888986401      -2.786176001      -0.795073493
Nuclear contribution   :     -2.235314941       2.849212876       0.913433052
                        -----------------------------------------
Total Dipole Moment    :     -0.346328539       0.063036876       0.118359559
                        -----------------------------------------
Magnitude (a.u.)       :      0.371384020
Magnitude (Debye)      :      0.943983159

Rotational constants in cm-1:             0.210205             0.083320             0.065708
Rotational constants in MHz :          6301.801853          2497.872697          1969.867295

                             ****ORCA TERMINATED NORMALLY****
TOTAL RUN TIME: 0 days 0 hours 0 minutes 16 seconds 329 msec
