                         Program Version 6.1.0  -  RELEASE   -
|  1> ! B3LYP def2-SVP d3 EnGrad
|  2> %pal nprocs 6 end
|  3> *xyz 0 1
|  4> N   1.30154344235114 -0.97919060669256 -0.15884319279011
|  5> B   1.33419259540255 0.37478877229512 -1.08352215685627
|  6> B   -1.84727743266785 -0.0483451250631 1.28246726500484
|  7> N   -1.6690405829906 0.92779208010582 0.32062955958637
|  8> H   0.43875855104471 -1.03745503745159 0.39658102425188
|  9> H   2.08573453475272 -0.99786069574436 0.49763717978801
| 10> H   1.36196095492172 -1.82320333535486 -0.73313504697862
| 11> H   -0.89369079068453 -0.71696293613348 1.63655446659182
| 12> H   1.19739231527573 1.30568885413664 -0.29546629550382
| 13> H   2.42148816957799 0.38801925199105 -1.63963191250077
| 14> H   0.39715956755695 0.26644414969181 -1.8629095726973
| 15> H   -2.93169250105633 -0.25190205048206 1.77158319823016
| 16> H   -2.43218662820143 1.50278089864563 -0.01982206006332
| 17> H   -0.77617435635313 1.12846619497342 -0.13148909052305
| 18> *
| 19>
| 20>                          ****END OF INPUT****

CARTESIAN COORDINATES (ANGSTROEM)
---------------------------------
  N      1.301543   -0.979191   -0.158843
  B      1.334193    0.374789   -1.083522
  B     -1.847277   -0.048345    1.282467
  N     -1.669041    0.927792    0.320630
  H      0.438759   -1.037455    0.396581
  H      2.085735   -0.997861    0.497637
  H      1.361961   -1.823203   -0.733135
  H     -0.893691   -0.716963    1.636554
  H      1.197392    1.305689   -0.295466
  H      2.421488    0.388019   -1.639632
  H      0.397160    0.266444   -1.862910
  H     -2.931693   -0.251902    1.771583
  H     -2.432187    1.502781   -0.019822
  H     -0.776174    1.128466   -0.131489

 Total Charge           Charge          ....    0
 Multiplicity           Mult            ....    1
 Number of Electrons    NEL             ....   34
 Basis Dimension        Dim             ....  106

ORBITAL ENERGIES
----------------

  NO   OCC          E(Eh)            E(eV)
   0   2.0000     -14.404992      -391.9798
   1   2.0000     -14.326042      -389.8314
   2   2.0000      -6.748815      -183.6446
   3   2.0000      -6.696367      -182.2174
   4   2.0000      -0.935095       -25.4452
   5   2.0000      -0.851949       -23.1827
   6   2.0000      -0.550067       -14.9681
   7   2.0000      -0.546273       -14.8648
   8   2.0000      -0.523390       -14.2422
   9   2.0000      -0.513665       -13.9775
  10   2.0000      -0.497387       -13.5346
  11   2.0000      -0.397679       -10.8214
  12   2.0000      -0.357720        -9.7340
  13   2.0000      -0.323916        -8.8142
  14   2.0000      -0.301876        -8.2145
  15   2.0000      -0.278791        -7.5863
  16   2.0000      -0.275722        -7.5028
  17   0.0000       0.003849         0.1047
  18   0.0000       0.019433         0.5288
  19   0.0000       0.072428         1.9709
  20   0.0000       0.084859         2.3091
  21   0.0000       0.105645         2.8747

MULLIKEN ATOMIC CHARGES
-----------------------
   0 N :    0.035749
   1 B :   -0.158724
   2 B :   -0.067500
   3 N :   -0.036654
   4 H :    0.111343
   5 H :    0.145974
   6 H :    0.146167
   7 H :   -0.085189
   8 H :   -0.116123
   9 H :   -0.064222
  10 H :   -0.106922
  11 H :   -0.040140
  12 H :    0.122945
  13 H :    0.113296
Sum of atomic charges:    0.0000000

LOEWDIN ATOMIC CHARGES
----------------------
   0 N :    0.227068
   1 B :   -0.373406
   2 B :   -0.142654
   3 N :    0.077020
   4 H :    0.097464
   5 H :    0.107837
   6 H :    0.107592
   7 H :   -0.060044
   8 H :   -0.060529
   9 H :   -0.053430
  10 H :   -0.058654
  11 H :   -0.044246
  12 H :    0.086870
  13 H :    0.089111

  Mayer bond orders larger than 0.100000
B(  0-N ,  1-B ) :   0.7941 B(  0-N ,  4-H ) :   0.9424 B(  0-N ,  5-H ) :   0.9669
B(  0-N ,  6-H ) :   0.9644 B(  1-B ,  8-H ) :   0.9281 B(  1-B ,  9-H ) :   0.9728
B(  1-B , 10-H ) :   0.9648 B(  2-B ,  3-N ) :   1.6761 B(  2-B ,  7-H ) :   0.9067
B(  2-B , 11-H ) :   0.9639 B(  3-N , 12-H ) :   0.9516 B(  3-N , 13-H ) :   0.9310

Dispersion correction           -0.013318635
FINAL SINGLE POINT ENERGY      -165.039646588075
Dispersion correction             ... done (  0.0 sec)

DIPOLE MOMENT
-------------

Method             : SCF
Type of density    : Electron Density
Multiplicity       :   1
Irrep              :   0
Energy             :  -165.0263279525946700 Eh
Basis              : AO
                                X                 Y                 Z
Electronic contribution:     -2.440125431      -0.320065088       1.598043613
Nuclear contribution   :      2.496677393      -0.807780580      -1.038445499
                        -----------------------------------------
Total Dipole Moment    :      0.056551963      -1.127845668       0.559598114
                        -----------------------------------------
Magnitude (a.u.)       :      1.260311083
Magnitude (Debye)      :      3.203456189

Rotational constants in cm-1:             0.366178             0.089349             0.074279
Rotational constants in MHz :         10977.755144          2678.618847          2226.838278

                             ****ORCA TERMINATED NORMALLY****
TOTAL RUN TIME: 0 days 0 hours 0 minutes 10 seconds 28 msec
