                         Program Version 6.1.0  -  RELEASE   -
|  1> ! B3LYP def2-SVP d3 EnGrad
|  2> %pal nprocs 6 end
|  3> *xyz 0 1
|  4> C   -0.71969254628994 -0.03416186163378 0.17518137572032
|  5> C   0.64150202450462 -0.32541816595583 -0.07791936824982
|  6> O   1.32284924545476 0.74523392200544 -0.2103611675018
|  7> H   -1.19735518920141 0.45787726832101 -0.68637199803492
|  8> H   -1.38294233822385 -0.72502729052519 0.70797590617272
|  9> H   1.1572701162534 -1.30001599210308 -0.13558768706996
| 10> H   0.17836868750243 1.18151211989142 0.22708293896347
| 11> *
| 12>
| 13>                          ****END OF INPUT****

CARTESIAN COORDINATES (ANGSTROEM)
---------------------------------
  C     -0.719693   -0.034162    0.175181
  C      0.641502   -0.325418   -0.077919
  O      1.322849    0.745234   -0.210361
  H     -1.197355    0.457877   -0.686372
  H     -1.382942   -0.725027    0.707976
  H      1.157270   -1.300016   -0.135588
  H      0.178369    1.181512    0.227083

 Total Charge           Charge          ....    0
 Multiplicity           Mult            ....    1
 Number of Electrons    NEL             ....   24
 Basis Dimension        Dim             ....   62

ORBITAL ENERGIES
----------------

  NO   OCC          E(Eh)            E(eV)
   0   2.0000     -19.158744      -521.3359
   1   2.0000     -10.288278      -279.9583
   2   2.0000     -10.171396      -276.7777
   3   2.0000      -1.060503       -28.8577
   4   2.0000      -0.728938       -19.8354
   5   2.0000      -0.599005       -16.2998
   6   2.0000      -0.504421       -13.7260
   7   2.0000      -0.454520       -12.3681
   8   2.0000      -0.431590       -11.7442
   9   2.0000      -0.383333       -10.4310
  10   2.0000      -0.330096        -8.9824
  11   2.0000      -0.230999        -6.2858
  12   0.0000      -0.051135        -1.3915
  13   0.0000       0.066274         1.8034
  14   0.0000       0.084825         2.3082
  15   0.0000       0.108694         2.9577
  16   0.0000       0.141042         3.8380

MULLIKEN ATOMIC CHARGES
-----------------------
   0 C :   -0.242772
   1 C :    0.171155
   2 O :   -0.247709
   3 H :    0.068759
   4 H :    0.029258
   5 H :    0.036323
   6 H :    0.184985
Sum of atomic charges:    0.0000000

LOEWDIN ATOMIC CHARGES
----------------------
   0 C :   -0.265775
   1 C :    0.143438
   2 O :   -0.132710
   3 H :    0.057932
   4 H :    0.023160
   5 H :    0.019920
   6 H :    0.154035

  Mayer bond orders larger than 0.100000
B(  0-C ,  1-C ) :   1.2786 B(  0-C ,  3-H ) :   0.9243 B(  0-C ,  4-H ) :   0.9490
B(  0-C ,  6-H ) :   0.4315 B(  1-C ,  2-O ) :   1.6045 B(  1-C ,  5-H ) :   0.9546
B(  2-O ,  6-H ) :   0.5072

Dispersion correction           -0.005700666
FINAL SINGLE POINT ENERGY      -153.524832657007
Dispersion correction             ... done (  0.1 sec)

DIPOLE MOMENT
-------------

Method             : SCF
Type of density    : Electron Density
Multiplicity       :   1
Irrep              :   0
Energy             :  -153.5191319914778489 Eh
Basis              : AO
                                X                 Y                 Z
Electronic contribution:      2.529939694       0.460683650      -0.373937478
Nuclear contribution   :     -2.770538328      -0.967859505       0.281167893
                        -----------------------------------------
Total Dipole Moment    :     -0.240598634      -0.507175855      -0.092769585
                        -----------------------------------------
Magnitude (a.u.)       :      0.568965066
Magnitude (Debye)      :      1.446194267

Rotational constants in cm-1:             1.623797             0.407761             0.339485
Rotational constants in MHz :         48680.214195         12224.378068         10177.502739

                             ****ORCA TERMINATED NORMALLY****
TOTAL RUN TIME: 0 days 0 hours 0 minutes 6 seconds 615 msec
