                         Program Version 6.1.0  -  RELEASE   -
|  1> ! B3LYP def2-SVP d3 EnGrad
|  2> %pal nprocs 6 end
|  3> *xyz 0 1
|  4> C   1.24987616037264 -1.09365389684075 0.59697147348989
|  5> C   0.26576009883068 0.04147119193629 0.32808405763469
|  6> C   0.67229139450311 0.76696860831531 -0.96602708518245
|  7> C   -0.03285111219211 0.35173324020117 -2.238197749609
|  8> O   1.54696481428285 1.60352111339996 -0.93858435071348
|  9> H   1.00117362800107 -1.58593263722164 1.54889025173056
| 10> H   2.27575277562448 -0.70183402992227 0.64897563211176
| 11> H   1.19492838358055 -1.84786560243443 -0.20417184563973
| 12> H   -0.00522349709166 -0.74335849151254 -2.35534290868088
| 13> H   0.43928434779389 0.84633565481623 -3.09705104890389
| 14> H   -1.09949144750553 0.62534116405364 -2.19121865591853
| 15> H   -2.01208038254577 -1.17487013387709 2.40694956585117
| 16> H   0.34881310227374 0.78724789618852 1.14149686802745
| 17> H   -2.3597814477875 -1.22752644838763 3.08391842495278
| 18> O   -1.03614414862691 -0.51856845697638 0.26292492448802
| 19> H   -1.6842936695135 0.19639582826165 0.30989344636165
| 20> *
| 21>
| 22>                          ****END OF INPUT****

CARTESIAN COORDINATES (ANGSTROEM)
---------------------------------
  C      1.249876   -1.093654    0.596971
  C      0.265760    0.041471    0.328084
  C      0.672291    0.766969   -0.966027
  C     -0.032851    0.351733   -2.238198
  O      1.546965    1.603521   -0.938584
  H      1.001174   -1.585933    1.548890
  H      2.275753   -0.701834    0.648976
  H      1.194928   -1.847866   -0.204172
  H     -0.005223   -0.743358   -2.355343
  H      0.439284    0.846336   -3.097051
  H     -1.099491    0.625341   -2.191219
  H     -2.012080   -1.174870    2.406950
  H      0.348813    0.787248    1.141497
  H     -2.359781   -1.227526    3.083918
  O     -1.036144   -0.518568    0.262925
  H     -1.684294    0.196396    0.309893

 Total Charge           Charge          ....    0
 Multiplicity           Mult            ....    1
 Number of Electrons    NEL             ....   50
 Basis Dimension        Dim             ....  134

ORBITAL ENERGIES
----------------

  NO   OCC          E(Eh)            E(eV)
   0   2.0000     -19.148857      -521.0669
   1   2.0000     -19.125025      -520.4184
   2   2.0000     -10.270837      -279.4837
   3   2.0000     -10.245384      -278.7911
   4   2.0000     -10.193010      -277.3659
   5   2.0000     -10.189538      -277.2714
   6   2.0000      -1.037207       -28.2238
   7   2.0000      -1.021588       -27.7988
   8   2.0000      -0.768282       -20.9060
   9   2.0000      -0.731510       -19.9054
  10   2.0000      -0.633800       -17.2466
  11   2.0000      -0.552812       -15.0428
  12   2.0000      -0.523173       -14.2363
  13   2.0000      -0.475927       -12.9506
  14   2.0000      -0.452332       -12.3086
  15   2.0000      -0.428638       -11.6638
  16   2.0000      -0.417865       -11.3707
  17   2.0000      -0.410178       -11.1615
  18   2.0000      -0.404808       -11.0154
  19   2.0000      -0.393480       -10.7071
  20   2.0000      -0.374985       -10.2039
  21   2.0000      -0.363928        -9.9030
  22   2.0000      -0.340786        -9.2733
  23   2.0000      -0.309312        -8.4168
  24   2.0000      -0.242998        -6.6123
  25   0.0000      -0.022195        -0.6040
  26   0.0000       0.033106         0.9008
  27   0.0000       0.073001         1.9865
  28   0.0000       0.084291         2.2937
  29   0.0000       0.105924         2.8824

MULLIKEN ATOMIC CHARGES
-----------------------
   0 C :    0.037060
   1 C :    0.125677
   2 C :   -0.052458
   3 C :    0.060856
   4 O :   -0.197449
   5 H :    0.031154
   6 H :    0.030072
   7 H :    0.014219
   8 H :    0.037031
   9 H :    0.030483
  10 H :    0.023844
  11 H :    0.011604
  12 H :    0.007172
  13 H :   -0.040749
  14 O :   -0.290812
  15 H :    0.172297
Sum of atomic charges:    0.0000000

LOEWDIN ATOMIC CHARGES
----------------------
   0 C :   -0.044903
   1 C :    0.032926
   2 C :    0.065102
   3 C :   -0.077455
   4 O :   -0.146107
   5 H :    0.032785
   6 H :    0.034899
   7 H :    0.026700
   8 H :    0.043938
   9 H :    0.035548
  10 H :    0.040475
  11 H :   -0.001325
  12 H :    0.019552
  13 H :   -0.020693
  14 O :   -0.120351
  15 H :    0.078907

  Mayer bond orders larger than 0.100000
B(  0-C ,  1-C ) :   1.0751 B(  0-C ,  5-H ) :   0.9628 B(  0-C ,  6-H ) :   0.9613
B(  0-C ,  7-H ) :   0.9588 B(  1-C ,  2-C ) :   0.9014 B(  1-C , 12-H ) :   0.9188
B(  1-C , 14-O ) :   1.0282 B(  2-C ,  3-C ) :   1.0259 B(  2-C ,  4-O ) :   2.1633
B(  3-C ,  8-H ) :   0.9457 B(  3-C ,  9-H ) :   0.9516 B(  3-C , 10-H ) :   0.9364
B( 11-H , 13-H ) :   0.9774 B( 14-O , 15-H ) :   0.9692

Dispersion correction           -0.018597694
FINAL SINGLE POINT ENERGY      -308.464917619304
Dispersion correction             ... done (  0.0 sec)

DIPOLE MOMENT
-------------

Method             : SCF
Type of density    : Electron Density
Multiplicity       :   1
Irrep              :   0
Energy             :  -308.4463199255579866 Eh
Basis              : AO
                                X                 Y                 Z
Electronic contribution:      4.526536063       5.712721920      -5.098696889
Nuclear contribution   :     -5.132304125      -5.899771847       5.054028651
                        -----------------------------------------
Total Dipole Moment    :     -0.605768063      -0.187049927      -0.044668238
                        -----------------------------------------
Magnitude (a.u.)       :      0.635561069
Magnitude (Debye)      :      1.615467855

Rotational constants in cm-1:             0.149926             0.081965             0.066485
Rotational constants in MHz :          4494.676521          2457.252128          1993.170330

                             ****ORCA TERMINATED NORMALLY****
TOTAL RUN TIME: 0 days 0 hours 0 minutes 16 seconds 383 msec
