                         Program Version 6.1.0  -  RELEASE   -
|  1> ! B3LYP def2-SVP d3 EnGrad
|  2> %pal nprocs 6 end
|  3> *xyz 0 2
|  4> C   -1.76095522162693 0.92735418422764 -1.16523702082598
|  5> C   -0.95038295291636 0.74916367937135 0.09307001361865
|  6> C   -1.65423123211634 -0.2707705456553 1.06360212723292
|  7> C   -1.84284635888138 -1.63155887213889 0.31171732446137
|  8> C   -2.57931205153488 -1.45361152935633 -1.0325303320081
|  9> C   -2.01664418827425 -0.33197969996109 -1.9342802489606
| 10> H   -2.58219591307887 -2.41255292989768 -1.57930229968075
| 11> H   -3.63623913642478 -1.22165245882217 -0.82422282393811
| 12> H   -1.07310435439618 -0.68098306192569 -2.39499129289273
| 13> H   -2.71308889671537 -0.15069992761648 -2.76928949762984
| 14> C   -2.48590413874135 2.19223559842719 -1.49454016416845
| 15> H   -1.82241080678606 3.07572517679418 -1.52038007461908
| 16> H   -2.97849954386451 2.12275658411096 -2.47705335790306
| 17> H   -3.27579885693909 2.43695702244755 -0.75314067892181
| 18> C   -0.57669791516605 -2.53337319045235 0.19444614510411
| 19> C   -0.50414598872296 2.07048869456183 0.73758858553391
| 20> C   0.57599412107366 -2.06030492117624 -0.64795858811264
| 21> H   -0.22987415297326 -2.78567752631363 1.20556409042891
| 22> C   0.69658328874518 2.70038847083765 -0.00630706520022
| 23> C   1.9425257920534 1.84428223932316 0.08345147299143
| 24> H   0.89635710309351 3.69913926507299 0.42153198144393
| 25> C   -0.81131360059541 -0.49438647867022 2.33020186184894
| 26> H   -0.87759411183266 0.36404112775979 3.01492537830346
| 27> H   -1.17238519540157 -1.37590427728053 2.88570327707101
| 28> C   -3.03027996019524 0.26496274470911 1.49940207437757
| 29> H   -2.92352288600058 1.22635399774194 2.02639244433056
| 30> H   -3.70451403910781 0.4294643565921 0.64693504593573
| 31> H   -3.52467926519849 -0.43854919381487 2.1898272223047
| 32> H   -1.33180171896955 2.79629142818163 0.77012553701186
| 33> H   -0.21613187756033 1.90580795119957 1.78528159746267
| 34> H   0.42879642178628 2.8510984612191 -1.06421043209485
| 35> C   2.32436391525855 1.08624200370912 -0.96000977414417
| 36> H   1.72596394893061 1.16801800050246 -1.87719265622782
| 37> C   3.41713027773743 0.05876332770582 -1.02172089843705
| 38> H   4.12733225015007 0.31244594052471 -1.82992426014141
| 39> H   4.00594733591332 0.04433825019116 -0.09244112675707
| 40> C   2.85852352798475 -1.35677827983082 -1.31310943466782
| 41> H   2.3885747279043 -1.35431834012206 -2.31049608845625
| 42> H   3.71134059300791 -2.05939214856929 -1.36643416580989
| 43> C   1.85648297427952 -1.84953377046809 -0.29047948191781
| 44> H   -0.02501892969774 0.22639568607609 -0.19790420487503
| 45> H   0.33983280127984 -1.89304125700548 -1.70384265982026
| 46> C   2.63054936216381 1.85111917176023 1.4244355416668
| 47> H   2.89220633543069 2.88245143137249 1.71890410719485
| 48> H   1.96407267885122 1.46206226272327 2.21356118775644
| 49> H   3.55122618494129 1.25333787666934 1.44019898128115
| 50> C   2.39566692027826 -2.03510228217064 1.10397852872363
| 51> H   3.34407353812802 -2.59947292617252 1.08084002014489
| 52> H   2.61998764560804 -1.06395284066384 1.57662507949706
| 53> H   1.70065311835383 -2.57112627150426 1.76314868752389
| 54> H   -0.9374644785159 -3.48480907105031 -0.23995501100508
| 55> H   -2.52020709257416 -2.22563723557698 0.9522988280015
| 56> H   0.24996700185464 -0.65281689759668 2.09568349796396
| 57> *
| 58>
| 59>                          ****END OF INPUT****

CARTESIAN COORDINATES (ANGSTROEM)
---------------------------------
  C     -1.760955    0.927354   -1.165237
  C     -0.950383    0.749164    0.093070
  C     -1.654231   -0.270771    1.063602
  C     -1.842846   -1.631559    0.311717
  C     -2.579312   -1.453612   -1.032530
  C     -2.016644   -0.331980   -1.934280
  H     -2.582196   -2.412553   -1.579302
  H     -3.636239   -1.221652   -0.824223
  H     -1.073104   -0.680983   -2.394991
  H     -2.713089   -0.150700   -2.769289
  C     -2.485904    2.192236   -1.494540
  H     -1.822411    3.075725   -1.520380
  H     -2.978500    2.122757   -2.477053
  H     -3.275799    2.436957   -0.753141
  C     -0.576698   -2.533373    0.194446
  C     -0.504146    2.070489    0.737589
  C      0.575994   -2.060305   -0.647959
  H     -0.229874   -2.785678    1.205564
  C      0.696583    2.700388   -0.006307
  C      1.942526    1.844282    0.083451
  H      0.896357    3.699139    0.421532
  C     -0.811314   -0.494386    2.330202
  H     -0.877594    0.364041    3.014925
  H     -1.172385   -1.375904    2.885703
  C     -3.030280    0.264963    1.499402
  H     -2.923523    1.226354    2.026392
  H     -3.704514    0.429464    0.646935
  H     -3.524679   -0.438549    2.189827
  H     -1.331802    2.796291    0.770126
  H     -0.216132    1.905808    1.785282
  H      0.428796    2.851098   -1.064210
  C      2.324364    1.086242   -0.960010
  H      1.725964    1.168018   -1.877193
  C      3.417130    0.058763   -1.021721
  H      4.127332    0.312446   -1.829924
  H      4.005947    0.044338   -0.092441
  C      2.858524   -1.356778   -1.313109
  H      2.388575   -1.354318   -2.310496
  H      3.711341   -2.059392   -1.366434
  C      1.856483   -1.849534   -0.290479
  H     -0.025019    0.226396   -0.197904
  H      0.339833   -1.893041   -1.703843
  C      2.630549    1.851119    1.424436
  H      2.892206    2.882451    1.718904
  H      1.964073    1.462062    2.213561
  H      3.551226    1.253338    1.440199
  C      2.395667   -2.035102    1.103979
  H      3.344074   -2.599473    1.080840
  H      2.619988   -1.063953    1.576625
  H      1.700653   -2.571126    1.763149
  H     -0.937464   -3.484809   -0.239955
  H     -2.520207   -2.225637    0.952299
  H      0.249967   -0.652817    2.095683

 Total Charge           Charge          ....    0
 Multiplicity           Mult            ....    2
 Number of Electrons    NEL             ....  153
 Basis Dimension        Dim             ....  445

ORBITAL ENERGIES
----------------
                 SPIN UP ORBITALS
  NO   OCC          E(Eh)            E(eV)
   0   1.0000     -10.185574      -277.1636
   1   1.0000     -10.180796      -277.0335
   2   1.0000     -10.180081      -277.0141
   3   1.0000     -10.179253      -276.9915
   4   1.0000     -10.179142      -276.9885
   5   1.0000     -10.178795      -276.9791
   6   1.0000     -10.177968      -276.9566
   7   1.0000     -10.177428      -276.9419
   8   1.0000     -10.176404      -276.9140
   9   1.0000     -10.174595      -276.8648
  10   1.0000     -10.173176      -276.8262
  11   1.0000     -10.172805      -276.8161
  12   1.0000     -10.170836      -276.7625
  13   1.0000     -10.170601      -276.7561
  14   1.0000     -10.170020      -276.7403
  15   1.0000     -10.169142      -276.7164
  16   1.0000     -10.168599      -276.7016
  17   1.0000     -10.166886      -276.6550
  18   1.0000     -10.166145      -276.6349
  19   1.0000     -10.165304      -276.6120
  20   1.0000      -0.839704       -22.8495
  21   1.0000      -0.811843       -22.0914
  22   1.0000      -0.801134       -21.8000
  23   1.0000      -0.769429       -20.9372
  24   1.0000      -0.757652       -20.6168
  25   1.0000      -0.749808       -20.4033
  26   1.0000      -0.709962       -19.3191
  27   1.0000      -0.704341       -19.1661
  28   1.0000      -0.673360       -18.3231
  29   1.0000      -0.670173       -18.2363
  30   1.0000      -0.665631       -18.1128
  31   1.0000      -0.663784       -18.0625
  32   1.0000      -0.628882       -17.1127
  33   1.0000      -0.614026       -16.7085
  34   1.0000      -0.575703       -15.6657
  35   1.0000      -0.557273       -15.1642
  36   1.0000      -0.540336       -14.7033
  37   1.0000      -0.509090       -13.8530
  38   1.0000      -0.501680       -13.6514
  39   1.0000      -0.495946       -13.4954
  40   1.0000      -0.478694       -13.0259
  41   1.0000      -0.466759       -12.7012
  42   1.0000      -0.460105       -12.5201
  43   1.0000      -0.450552       -12.2602
  44   1.0000      -0.443336       -12.0638
  45   1.0000      -0.436559       -11.8794
  46   1.0000      -0.427200       -11.6247
  47   1.0000      -0.423431       -11.5221
  48   1.0000      -0.420505       -11.4425
  49   1.0000      -0.406680       -11.0663
  50   1.0000      -0.402876       -10.9628
  51   1.0000      -0.400564       -10.8999
  52   1.0000      -0.393934       -10.7195
  53   1.0000      -0.390568       -10.6279
  54   1.0000      -0.389849       -10.6083
  55   1.0000      -0.380556       -10.3555
  56   1.0000      -0.376808       -10.2535
  57   1.0000      -0.373092       -10.1523
  58   1.0000      -0.368220       -10.0198
  59   1.0000      -0.364380        -9.9153
  60   1.0000      -0.360594        -9.8123
  61   1.0000      -0.356452        -9.6996
  62   1.0000      -0.352868        -9.6020
  63   1.0000      -0.343817        -9.3557
  64   1.0000      -0.342829        -9.3289
  65   1.0000      -0.339019        -9.2252
  66   1.0000      -0.331755        -9.0275
  67   1.0000      -0.325737        -8.8637
  68   1.0000      -0.316951        -8.6247
  69   1.0000      -0.313715        -8.5366
  70   1.0000      -0.307215        -8.3597
  71   1.0000      -0.300413        -8.1746
  72   1.0000      -0.290188        -7.8964
  73   1.0000      -0.282816        -7.6958
  74   1.0000      -0.229020        -6.2320
  75   1.0000      -0.225658        -6.1405
  76   1.0000      -0.156232        -4.2513
  77   0.0000       0.021046         0.5727
  78   0.0000       0.023657         0.6437
  79   0.0000       0.047511         1.2928
  80   0.0000       0.062251         1.6939
  81   0.0000       0.065445         1.7808

                 SPIN DOWN ORBITALS
  NO   OCC          E(Eh)            E(eV)
   0   1.0000     -10.184342      -277.1300
   1   1.0000     -10.180790      -277.0334
   2   1.0000     -10.180086      -277.0142
   3   1.0000     -10.179349      -276.9942
   4   1.0000     -10.179040      -276.9858
   5   1.0000     -10.178788      -276.9789
   6   1.0000     -10.177967      -276.9566
   7   1.0000     -10.177430      -276.9420
   8   1.0000     -10.176394      -276.9138
   9   1.0000     -10.174581      -276.8644
  10   1.0000     -10.173843      -276.8443
  11   1.0000     -10.172183      -276.7992
  12   1.0000     -10.171775      -276.7881
  13   1.0000     -10.170543      -276.7546
  14   1.0000     -10.169129      -276.7161
  15   1.0000     -10.168582      -276.7012
  16   1.0000     -10.166862      -276.6544
  17   1.0000     -10.166201      -276.6364
  18   1.0000     -10.166123      -276.6343
  19   1.0000     -10.156052      -276.3602
  20   1.0000      -0.835596       -22.7377
  21   1.0000      -0.811145       -22.0724
  22   1.0000      -0.800608       -21.7856
  23   1.0000      -0.760103       -20.6834
  24   1.0000      -0.756341       -20.5811
  25   1.0000      -0.749533       -20.3958
  26   1.0000      -0.709347       -19.3023
  27   1.0000      -0.701075       -19.0772
  28   1.0000      -0.672919       -18.3111
  29   1.0000      -0.669448       -18.2166
  30   1.0000      -0.665123       -18.0989
  31   1.0000      -0.662803       -18.0358
  32   1.0000      -0.628430       -17.1004
  33   1.0000      -0.611025       -16.6268
  34   1.0000      -0.575538       -15.6612
  35   1.0000      -0.556073       -15.1315
  36   1.0000      -0.531133       -14.4529
  37   1.0000      -0.508862       -13.8468
  38   1.0000      -0.500978       -13.6323
  39   1.0000      -0.489350       -13.3159
  40   1.0000      -0.478195       -13.0124
  41   1.0000      -0.465516       -12.6673
  42   1.0000      -0.458021       -12.4634
  43   1.0000      -0.448568       -12.2061
  44   1.0000      -0.443142       -12.0585
  45   1.0000      -0.434843       -11.8327
  46   1.0000      -0.424350       -11.5472
  47   1.0000      -0.421086       -11.4583
  48   1.0000      -0.418699       -11.3934
  49   1.0000      -0.405525       -11.0349
  50   1.0000      -0.400578       -10.9003
  51   1.0000      -0.397667       -10.8211
  52   1.0000      -0.390498       -10.6260
  53   1.0000      -0.389253       -10.5921
  54   1.0000      -0.388115       -10.5611
  55   1.0000      -0.379486       -10.3264
  56   1.0000      -0.375705       -10.2235
  57   1.0000      -0.371403       -10.1064
  58   1.0000      -0.368098       -10.0165
  59   1.0000      -0.363479        -9.8908
  60   1.0000      -0.360010        -9.7964
  61   1.0000      -0.356213        -9.6931
  62   1.0000      -0.352586        -9.5944
  63   1.0000      -0.343134        -9.3372
  64   1.0000      -0.340779        -9.2731
  65   1.0000      -0.336045        -9.1442
  66   1.0000      -0.330836        -9.0025
  67   1.0000      -0.324854        -8.8397
  68   1.0000      -0.315774        -8.5926
  69   1.0000      -0.311812        -8.4848
  70   1.0000      -0.305214        -8.3053
  71   1.0000      -0.298367        -8.1190
  72   1.0000      -0.286384        -7.7929
  73   1.0000      -0.280922        -7.6443
  74   1.0000      -0.228911        -6.2290
  75   1.0000      -0.224604        -6.1118
  76   0.0000      -0.024077        -0.6552
  77   0.0000       0.021367         0.5814
  78   0.0000       0.024042         0.6542
  79   0.0000       0.047869         1.3026
  80   0.0000       0.063028         1.7151

MULLIKEN ATOMIC CHARGES AND SPIN POPULATIONS
--------------------------------------------
   0 C :   -0.300582    0.990522
   1 C :    0.049068   -0.084261
   2 C :   -0.246348    0.045011
   3 C :   -0.037466   -0.004817
   4 C :    0.063229    0.033512
   5 C :    0.152004   -0.084393
   6 H :   -0.022311    0.005257
   7 H :   -0.014497    0.000304
   8 H :   -0.013553    0.043305
   9 H :   -0.025556    0.002103
  10 C :    0.110411   -0.096411
  11 H :    0.006809    0.037051
  12 H :   -0.004804    0.003173
  13 H :    0.007443    0.063272
  14 C :    0.177815    0.000844
  15 C :    0.082473    0.003117
  16 C :   -0.090101   -0.003052
  17 H :   -0.026719   -0.000040
  18 C :    0.118838    0.001757
  19 C :   -0.189068    0.001739
  20 H :   -0.015875   -0.000174
  21 C :    0.095835    0.001559
  22 H :    0.001462    0.000053
  23 H :   -0.005490    0.002875
  24 C :    0.092986    0.002810
  25 H :   -0.002427    0.000614
  26 H :    0.007221   -0.001019
  27 H :   -0.007207   -0.000177
  28 H :   -0.011702   -0.000492
  29 H :   -0.027725   -0.001199
  30 H :   -0.010535   -0.000934
  31 C :   -0.059709    0.000436
  32 H :   -0.025678   -0.000094
  33 C :    0.096663    0.000180
  34 H :   -0.001215    0.000080
  35 H :   -0.011373    0.000007
  36 C :    0.073317   -0.000480
  37 H :   -0.012842   -0.000012
  38 H :   -0.003765    0.000254
  39 C :   -0.157709    0.006829
  40 H :    0.016635    0.027020
  41 H :   -0.030442    0.001041
  42 C :    0.093713    0.000050
  43 H :    0.007116   -0.000020
  44 H :    0.017711    0.000071
  45 H :    0.003230    0.000001
  46 C :    0.100044   -0.000473
  47 H :    0.003435    0.000076
  48 H :    0.016011    0.000482
  49 H :    0.006494    0.000022
  50 H :   -0.010813   -0.000109
  51 H :   -0.029402    0.002309
  52 H :   -0.005050    0.000424
Sum of atomic charges         :    0.0000000

LOEWDIN ATOMIC CHARGES AND SPIN POPULATIONS
-------------------------------------------
   0 C :   -0.031002    0.798154
   1 C :   -0.031704   -0.010925
   2 C :   -0.033312    0.044186
   3 C :   -0.017024   -0.002212
   4 C :   -0.024138    0.034299
   5 C :   -0.033636   -0.011931
   6 H :    0.015501    0.003572
   7 H :    0.018139    0.000049
   8 H :    0.021013    0.034597
   9 H :    0.018889    0.000651
  10 C :   -0.060338   -0.015958
  11 H :    0.024153    0.030181
  12 H :    0.024105    0.001434
  13 H :    0.023199    0.050821
  14 C :   -0.027606    0.000387
  15 C :   -0.019349    0.002257
  16 C :   -0.051232   -0.000631
  17 H :    0.018655    0.000060
  18 C :   -0.017763    0.000889
  19 C :   -0.036193    0.000508
  20 H :    0.020024    0.000041
  21 C :   -0.043859    0.001884
  22 H :    0.017379    0.000123
  23 H :    0.019248    0.002245
  24 C :   -0.042052    0.001628
  25 H :    0.018843    0.000551
  26 H :    0.017676    0.000710
  27 H :    0.018187    0.000217
  28 H :    0.016408   -0.000350
  29 H :    0.014837   -0.000855
  30 H :    0.021178    0.000195
  31 C :   -0.048707    0.000782
  32 H :    0.017428    0.000218
  33 C :   -0.031020    0.000240
  34 H :    0.027314    0.000068
  35 H :    0.017415    0.000027
  36 C :   -0.017784   -0.000050
  37 H :    0.020011   -0.000007
  38 H :    0.022091    0.000211
  39 C :   -0.037968    0.005139
  40 H :    0.029424    0.021716
  41 H :    0.014087    0.001667
  42 C :   -0.050305    0.000080
  43 H :    0.030115   -0.000014
  44 H :    0.027351    0.000051
  45 H :    0.021842    0.000011
  46 C :   -0.052244    0.000003
  47 H :    0.028401    0.000067
  48 H :    0.030198    0.000322
  49 H :    0.024629    0.000030
  50 H :    0.028467   -0.000071
  51 H :    0.019203    0.002232
  52 H :    0.021830    0.000503

  Mayer bond orders larger than 0.100000
B(  0-C ,  1-C ) :   1.0145 B(  0-C ,  5-C ) :   1.0895 B(  0-C , 10-C ) :   1.1334
B(  1-C ,  2-C ) :   0.9736 B(  1-C , 15-C ) :   1.0521 B(  1-C , 40-H ) :   0.8688
B(  2-C ,  3-C ) :   0.9901 B(  2-C , 21-C ) :   1.0623 B(  2-C , 24-C ) :   1.0340
B(  3-C ,  4-C ) :   1.0659 B(  3-C , 14-C ) :   1.0624 B(  3-C , 51-H ) :   0.8868
B(  4-C ,  5-C ) :   1.0822 B(  4-C ,  6-H ) :   0.9225 B(  4-C ,  7-H ) :   0.9245
B(  5-C ,  8-H ) :   0.9036 B(  5-C ,  9-H ) :   0.9115 B( 10-C , 11-H ) :   0.9336
B( 10-C , 12-H ) :   0.9442 B( 10-C , 13-H ) :   0.9292 B( 14-C , 16-C ) :   1.0735
B( 14-C , 17-H ) :   0.9073 B( 14-C , 50-H ) :   0.8957 B( 15-C , 18-C ) :   1.0839
B( 15-C , 28-H ) :   0.9088 B( 15-C , 29-H ) :   0.9213 B( 16-C , 39-C ) :   1.8742
B( 16-C , 41-H ) :   0.9306 B( 18-C , 19-C ) :   1.0546 B( 18-C , 20-H ) :   0.9163
B( 18-C , 30-H ) :   0.9188 B( 19-C , 31-C ) :   1.8883 B( 19-C , 42-C ) :   1.0930
B( 21-C , 22-H ) :   0.9473 B( 21-C , 23-H ) :   0.9441 B( 21-C , 52-H ) :   0.9480
B( 24-C , 25-H ) :   0.9576 B( 24-C , 26-H ) :   0.9560 B( 24-C , 27-H ) :   0.9554
B( 31-C , 32-H ) :   0.9367 B( 31-C , 33-C ) :   1.0547 B( 33-C , 34-H ) :   0.9113
B( 33-C , 35-H ) :   0.9314 B( 33-C , 36-C ) :   1.0623 B( 36-C , 37-H ) :   0.9290
B( 36-C , 38-H ) :   0.9182 B( 36-C , 39-C ) :   1.0547 B( 39-C , 46-C ) :   1.0941
B( 42-C , 43-H ) :   0.9386 B( 42-C , 44-H ) :   0.9397 B( 42-C , 45-H ) :   0.9451
B( 46-C , 47-H ) :   0.9368 B( 46-C , 48-H ) :   0.9343 B( 46-C , 49-H ) :   0.9419

Dispersion correction           -0.121406771
FINAL SINGLE POINT ENERGY      -780.924623728000
Dispersion correction             ... done (  0.0 sec)

DIPOLE MOMENT
-------------

Method             : SCF
Type of density    : Electron Density
Multiplicity       :   2
Irrep              :   0
Energy             :  -780.8032169573930332 Eh
Basis              : AO
                                X                 Y                 Z
Electronic contribution:      2.056592148      -1.484948256      -5.152250865
Nuclear contribution   :     -1.976624534       1.430213166       5.337330097
                        -----------------------------------------
Total Dipole Moment    :      0.079967614      -0.054735090       0.185079232
                        -----------------------------------------
Magnitude (a.u.)       :      0.208914029
Magnitude (Debye)      :      0.531017261

Rotational constants in cm-1:             0.014711             0.010495             0.008661
Rotational constants in MHz :           441.016076           314.621832           259.636287

                             ****ORCA TERMINATED NORMALLY****
TOTAL RUN TIME: 0 days 0 hours 3 minutes 7 seconds 877 msec
