                         Program Version 6.1.0  -  RELEASE   -
|  1> ! B3LYP def2-SVP d3 EnGrad
|  2> %pal nprocs 6 end
|  3> *xyz 0 1
|  4> C   -0.59362983796967 2.09482551323932 0.42658340812862
|  5> H   -1.43563447085298 1.60952793130587 0.94622089828471
|  6> H   -1.00943511839187 2.6206696686246 -0.44639209391574
|  7> H   -0.10387242347304 2.80537324007282 1.10297243810319
|  8> C   0.39841969346684 1.04909415803316 -0.02197746531242
|  9> O   1.20958293000285 -1.93861689743216 -1.55620147722528
| 10> O   1.53249084457725 0.95601529136763 0.38483188281662
| 11> C   2.25738360894619 -2.46546696125699 -0.74454869786923
| 12> H   2.49205839604167 -3.49476230578345 -1.07643391644478
| 13> H   3.14479634810531 -1.84620204141558 -0.94842853233162
| 14> C   1.92313841148143 -2.44318414921422 0.7400060872573
| 15> H   1.81058080844863 -1.40694407085767 1.09181966369737
| 16> H   2.72667978385947 -2.92118282379958 1.32377590095782
| 17> H   0.98716210090805 -2.99216114439314 0.93836271614661
| 18> O   -0.1243547061002 0.20949915410849 -0.93193814727354
| 19> H   0.56716565342026 -0.47887801377582 -1.19841583943326
| 20> H   -1.2814001996416 -1.38907734173259 -0.62528680386988
| 21> O   -1.36190556780431 -2.35218763442974 -0.75863577530646
| 22> H   -1.99667911942588 -2.43749596262554 -1.48403611578522
| 23> H   0.37048932440153 -2.40494655003541 -1.34494898062478
| 24> *
| 25>
| 26>                          ****END OF INPUT****

CARTESIAN COORDINATES (ANGSTROEM)
---------------------------------
  C     -0.593630    2.094826    0.426583
  H     -1.435634    1.609528    0.946221
  H     -1.009435    2.620670   -0.446392
  H     -0.103872    2.805373    1.102972
  C      0.398420    1.049094   -0.021977
  O      1.209583   -1.938617   -1.556201
  O      1.532491    0.956015    0.384832
  C      2.257384   -2.465467   -0.744549
  H      2.492058   -3.494762   -1.076434
  H      3.144796   -1.846202   -0.948429
  C      1.923138   -2.443184    0.740006
  H      1.810581   -1.406944    1.091820
  H      2.726680   -2.921183    1.323776
  H      0.987162   -2.992161    0.938363
  O     -0.124355    0.209499   -0.931938
  H      0.567166   -0.478878   -1.198416
  H     -1.281400   -1.389077   -0.625287
  O     -1.361906   -2.352188   -0.758636
  H     -1.996679   -2.437496   -1.484036
  H      0.370489   -2.404947   -1.344949

 Total Charge           Charge          ....    0
 Multiplicity           Mult            ....    1
 Number of Electrons    NEL             ....   68
 Basis Dimension        Dim             ....  172

ORBITAL ENERGIES
----------------

  NO   OCC          E(Eh)            E(eV)
   0   2.0000     -19.158600      -521.3320
   1   2.0000     -19.149867      -521.0944
   2   2.0000     -19.133938      -520.6609
   3   2.0000     -19.111517      -520.0508
   4   2.0000     -10.308431      -280.5067
   5   2.0000     -10.228116      -278.3212
   6   2.0000     -10.195038      -277.4211
   7   2.0000     -10.169973      -276.7390
   8   2.0000      -1.078281       -29.3415
   9   2.0000      -1.015805       -27.6414
  10   2.0000      -1.000713       -27.2308
  11   2.0000      -0.986659       -26.8484
  12   2.0000      -0.741510       -20.1775
  13   2.0000      -0.731670       -19.9097
  14   2.0000      -0.618863       -16.8401
  15   2.0000      -0.593699       -16.1554
  16   2.0000      -0.539678       -14.6854
  17   2.0000      -0.499038       -13.5795
  18   2.0000      -0.479246       -13.0410
  19   2.0000      -0.466385       -12.6910
  20   2.0000      -0.462050       -12.5730
  21   2.0000      -0.451682       -12.2909
  22   2.0000      -0.431858       -11.7515
  23   2.0000      -0.406776       -11.0689
  24   2.0000      -0.401554       -10.9268
  25   2.0000      -0.386887       -10.5277
  26   2.0000      -0.384089       -10.4516
  27   2.0000      -0.369528       -10.0554
  28   2.0000      -0.361254        -9.8302
  29   2.0000      -0.336162        -9.1474
  30   2.0000      -0.313415        -8.5285
  31   2.0000      -0.309866        -8.4319
  32   2.0000      -0.280583        -7.6350
  33   2.0000      -0.265511        -7.2249
  34   0.0000       0.012090         0.3290
  35   0.0000       0.040029         1.0893
  36   0.0000       0.071011         1.9323
  37   0.0000       0.080399         2.1878
  38   0.0000       0.114591         3.1182

MULLIKEN ATOMIC CHARGES
-----------------------
   0 C :    0.030715
   1 H :    0.036979
   2 H :    0.040494
   3 H :    0.036347
   4 C :    0.104567
   5 O :   -0.363225
   6 O :   -0.231380
   7 C :    0.187731
   8 H :    0.000637
   9 H :    0.016971
  10 C :   -0.064682
  11 H :    0.039879
  12 H :    0.008130
  13 H :    0.018066
  14 O :   -0.271400
  15 H :    0.199596
  16 H :    0.159097
  17 O :   -0.279846
  18 H :    0.170025
  19 H :    0.161299
Sum of atomic charges:   -0.0000000

LOEWDIN ATOMIC CHARGES
----------------------
   0 C :   -0.076771
   1 H :    0.043987
   2 H :    0.043849
   3 H :    0.039487
   4 C :    0.077945
   5 O :   -0.112178
   6 O :   -0.187088
   7 C :    0.079159
   8 H :    0.007164
   9 H :    0.020685
  10 C :   -0.082635
  11 H :    0.027155
  12 H :    0.027848
  13 H :    0.022266
  14 O :   -0.076066
  15 H :    0.054863
  16 H :    0.062328
  17 O :   -0.103345
  18 H :    0.088099
  19 H :    0.043247

  Mayer bond orders larger than 0.100000
B(  0-C ,  1-H ) :   0.9509 B(  0-C ,  2-H ) :   0.9520 B(  0-C ,  3-H ) :   0.9627
B(  0-C ,  4-C ) :   1.0241 B(  4-C ,  6-O ) :   2.0573 B(  4-C , 14-O ) :   1.1993
B(  5-O ,  7-C ) :   0.9669 B(  5-O , 15-H ) :   0.2193 B(  5-O , 19-H ) :   0.8949
B(  7-C ,  8-H ) :   0.9575 B(  7-C ,  9-H ) :   0.9576 B(  7-C , 10-C ) :   1.1071
B( 10-C , 11-H ) :   0.9606 B( 10-C , 12-H ) :   0.9527 B( 10-C , 13-H ) :   0.9650
B( 14-O , 15-H ) :   0.8117 B( 16-H , 17-O ) :   0.9510 B( 17-O , 18-H ) :   0.9904
B( 17-O , 19-H ) :   0.1770

Dispersion correction           -0.022634337
FINAL SINGLE POINT ENERGY      -460.009713259305
Dispersion correction             ... done (  0.0 sec)

DIPOLE MOMENT
-------------

Method             : SCF
Type of density    : Electron Density
Multiplicity       :   1
Irrep              :   0
Energy             :  -459.9870789219236258 Eh
Basis              : AO
                                X                 Y                 Z
Electronic contribution:     -0.159797430       3.775792671      -2.470435505
Nuclear contribution   :     -0.869383453      -3.995005084       2.237764509
                        -----------------------------------------
Total Dipole Moment    :     -1.029180883      -0.219212413      -0.232670996
                        -----------------------------------------
Magnitude (a.u.)       :      1.077684167
Magnitude (Debye)      :      2.739255460

Rotational constants in cm-1:             0.070832             0.035441             0.027833
Rotational constants in MHz :          2123.475932          1062.490117           834.404272

                             ****ORCA TERMINATED NORMALLY****
TOTAL RUN TIME: 0 days 0 hours 0 minutes 23 seconds 868 msec
