                         Program Version 6.1.0  -  RELEASE   -
|  1> ! B3LYP def2-SVP d3 EnGrad
|  2> %pal nprocs 6 end
|  3> *xyz 0 1
|  4> N   1.53147926138306 -0.72398448346475 0.07359282089016
|  5> B   2.35104813251945 0.39818179819014 0.00151209746537
|  6> B   -1.72142004568097 -0.49866775242382 -0.51400901896538
|  7> N   -1.22839003671354 0.72271297605813 0.46239560379386
|  8> H   -0.26741853734087 0.54585164722982 0.77944305282613
|  9> H   1.72688900379538 -1.5128000386504 0.68192025433318
| 10> H   0.73905099385367 -0.88979942785104 -0.55015725160218
| 11> H   3.30870663501046 0.48868097967212 0.73210932373849
| 12> H   2.0599720901046 1.27915414484849 -0.77490954026938
| 13> H   -0.92164305819189 -0.51287316703245 -1.44642812441888
| 14> H   -2.85277341979634 -0.21960850381243 -0.87934164803156
| 15> H   -1.66522440122226 -1.51038440491455 0.17326919698119
| 16> H   -1.82826198717545 0.81140027658588 1.28530832679722
| 17> H   -1.2320146305453 1.62213595556486 -0.02470509353821
| 18> *
| 19>
| 20>                          ****END OF INPUT****

CARTESIAN COORDINATES (ANGSTROEM)
---------------------------------
  N      1.531479   -0.723984    0.073593
  B      2.351048    0.398182    0.001512
  B     -1.721420   -0.498668   -0.514009
  N     -1.228390    0.722713    0.462396
  H     -0.267419    0.545852    0.779443
  H      1.726889   -1.512800    0.681920
  H      0.739051   -0.889799   -0.550157
  H      3.308707    0.488681    0.732109
  H      2.059972    1.279154   -0.774910
  H     -0.921643   -0.512873   -1.446428
  H     -2.852773   -0.219609   -0.879342
  H     -1.665224   -1.510384    0.173269
  H     -1.828262    0.811400    1.285308
  H     -1.232015    1.622136   -0.024705

 Total Charge           Charge          ....    0
 Multiplicity           Mult            ....    1
 Number of Electrons    NEL             ....   34
 Basis Dimension        Dim             ....  106

ORBITAL ENERGIES
----------------

  NO   OCC          E(Eh)            E(eV)
   0   2.0000     -14.405593      -391.9961
   1   2.0000     -14.336028      -390.1032
   2   2.0000      -6.751501      -183.7177
   3   2.0000      -6.697610      -182.2512
   4   2.0000      -0.936035       -25.4708
   5   2.0000      -0.860606       -23.4183
   6   2.0000      -0.551384       -15.0039
   7   2.0000      -0.547015       -14.8850
   8   2.0000      -0.528086       -14.3699
   9   2.0000      -0.516364       -14.0510
  10   2.0000      -0.502507       -13.6739
  11   2.0000      -0.395671       -10.7668
  12   2.0000      -0.358649        -9.7593
  13   2.0000      -0.322969        -8.7884
  14   2.0000      -0.311210        -8.4685
  15   2.0000      -0.280115        -7.6223
  16   2.0000      -0.277677        -7.5560
  17   0.0000      -0.003630        -0.0988
  18   0.0000       0.018365         0.4997
  19   0.0000       0.065975         1.7953
  20   0.0000       0.083598         2.2748
  21   0.0000       0.111811         3.0425

MULLIKEN ATOMIC CHARGES
-----------------------
   0 N :   -0.083006
   1 B :   -0.070864
   2 B :   -0.188562
   3 N :    0.025203
   4 H :    0.125262
   5 H :    0.124872
   6 H :    0.139377
   7 H :   -0.042772
   8 H :   -0.053361
   9 H :   -0.102242
  10 H :   -0.071423
  11 H :   -0.096609
  12 H :    0.145766
  13 H :    0.148359
Sum of atomic charges:    0.0000000

LOEWDIN ATOMIC CHARGES
----------------------
   0 N :    0.062721
   1 B :   -0.135077
   2 B :   -0.373933
   3 N :    0.225743
   4 H :    0.093109
   5 H :    0.085673
   6 H :    0.089426
   7 H :   -0.044799
   8 H :   -0.046277
   9 H :   -0.059793
  10 H :   -0.053081
  11 H :   -0.058786
  12 H :    0.106833
  13 H :    0.108244

  Mayer bond orders larger than 0.100000
B(  0-N ,  1-B ) :   1.5723 B(  0-N ,  5-H ) :   0.9561 B(  0-N ,  6-H ) :   0.9188
B(  1-B ,  7-H ) :   0.9703 B(  1-B ,  8-H ) :   0.9661 B(  2-B ,  3-N ) :   0.7863
B(  2-B ,  9-H ) :   0.9224 B(  2-B , 10-H ) :   0.9736 B(  2-B , 11-H ) :   0.9751
B(  3-N ,  4-H ) :   0.9363 B(  3-N , 12-H ) :   0.9651 B(  3-N , 13-H ) :   0.9670

Dispersion correction           -0.013410117
FINAL SINGLE POINT ENERGY      -165.039303821034
Dispersion correction             ... done (  0.1 sec)

DIPOLE MOMENT
-------------

Method             : SCF
Type of density    : Electron Density
Multiplicity       :   1
Irrep              :   0
Energy             :  -165.0258937043233516 Eh
Basis              : AO
                                X                 Y                 Z
Electronic contribution:      2.873739874       0.557655124       1.153592352
Nuclear contribution   :     -2.683844013       0.303598051       0.111815052
                        -----------------------------------------
Total Dipole Moment    :      0.189895860       0.861253175       1.265407404
                        -----------------------------------------
Magnitude (a.u.)       :      1.542424509
Magnitude (Debye)      :      3.920531532

Rotational constants in cm-1:             0.394600             0.088732             0.079032
Rotational constants in MHz :         11829.810109          2660.122633          2369.306926

                             ****ORCA TERMINATED NORMALLY****
TOTAL RUN TIME: 0 days 0 hours 0 minutes 12 seconds 491 msec
