                         Program Version 6.1.0  -  RELEASE   -
|  1> ! B3LYP def2-SVP d3 EnGrad
|  2> %pal nprocs 6 end
|  3> *xyz 0 1
|  4> C   -2.20302629846201 -0.59492319980253 0.63776068159273
|  5> C   -1.58141087211494 0.18849184851075 -0.48067985679662
|  6> C   -0.36984520908176 0.76207985805116 -0.50342523782703
|  7> C   0.66324192998533 0.75908225910205 0.58808170635411
|  8> C   1.89683943767384 -0.06255899732607 0.29025806985405
|  9> C   2.04367623370482 -0.91618487021653 -0.72634912933858
| 10> H   -2.20315529806041 0.29392430631687 -1.37900883986627
| 11> H   -3.15204473529516 -0.13295416963861 0.96302302788804
| 12> H   -2.45329841346766 -1.61756752365587 0.30463087302052
| 13> H   2.72625829202963 0.07124729544787 0.99715213987052
| 14> H   -1.54827751199644 -0.68081596266403 1.51686410805165
| 15> H   1.24087154670828 -1.08692485407955 -1.45009483495349
| 16> H   2.97090843622828 -1.47915956668228 -0.86428745723373
| 17> H   0.9861832740868 1.80010007716831 0.78187559941705
| 18> H   0.23258115597843 0.41313341061358 1.54431000994876
| 19> H   -0.07003296791701 1.28077108885485 -1.42212585998175
| 20> *
| 21>
| 22>                          ****END OF INPUT****

CARTESIAN COORDINATES (ANGSTROEM)
---------------------------------
  C     -2.203026   -0.594923    0.637761
  C     -1.581411    0.188492   -0.480680
  C     -0.369845    0.762080   -0.503425
  C      0.663242    0.759082    0.588082
  C      1.896839   -0.062559    0.290258
  C      2.043676   -0.916185   -0.726349
  H     -2.203155    0.293924   -1.379009
  H     -3.152045   -0.132954    0.963023
  H     -2.453298   -1.617568    0.304631
  H      2.726258    0.071247    0.997152
  H     -1.548278   -0.680816    1.516864
  H      1.240872   -1.086925   -1.450095
  H      2.970908   -1.479160   -0.864287
  H      0.986183    1.800100    0.781876
  H      0.232581    0.413133    1.544310
  H     -0.070033    1.280771   -1.422126

 Total Charge           Charge          ....    0
 Multiplicity           Mult            ....    1
 Number of Electrons    NEL             ....   46
 Basis Dimension        Dim             ....  134

ORBITAL ENERGIES
----------------

  NO   OCC          E(Eh)            E(eV)
   0   2.0000     -10.188510      -277.2435
   1   2.0000     -10.185565      -277.1633
   2   2.0000     -10.182323      -277.0751
   3   2.0000     -10.182217      -277.0722
   4   2.0000     -10.178437      -276.9693
   5   2.0000     -10.172800      -276.8160
   6   2.0000      -0.801006       -21.7965
   7   2.0000      -0.756185       -20.5768
   8   2.0000      -0.695789       -18.9334
   9   2.0000      -0.649358       -17.6699
  10   2.0000      -0.554000       -15.0751
  11   2.0000      -0.506088       -13.7713
  12   2.0000      -0.475986       -12.9522
  13   2.0000      -0.461175       -12.5492
  14   2.0000      -0.423358       -11.5202
  15   2.0000      -0.406315       -11.0564
  16   2.0000      -0.397748       -10.8233
  17   2.0000      -0.383894       -10.4463
  18   2.0000      -0.364438        -9.9169
  19   2.0000      -0.347582        -9.4582
  20   2.0000      -0.324875        -8.8403
  21   2.0000      -0.255244        -6.9456
  22   2.0000      -0.243474        -6.6253
  23   0.0000       0.017869         0.4862
  24   0.0000       0.023745         0.6461
  25   0.0000       0.067002         1.8232
  26   0.0000       0.081173         2.2088
  27   0.0000       0.091535         2.4908

MULLIKEN ATOMIC CHARGES
-----------------------
   0 C :    0.071920
   1 C :   -0.101943
   2 C :   -0.093071
   3 C :    0.171484
   4 C :   -0.118374
   5 C :   -0.012045
   6 H :   -0.006264
   7 H :    0.020257
   8 H :    0.020867
   9 H :   -0.001831
  10 H :    0.008112
  11 H :    0.017358
  12 H :    0.014252
  13 H :    0.008091
  14 H :    0.006921
  15 H :   -0.005734
Sum of atomic charges:   -0.0000000

LOEWDIN ATOMIC CHARGES
----------------------
   0 C :   -0.057642
   1 C :   -0.042340
   2 C :   -0.041222
   3 C :   -0.036375
   4 C :   -0.026382
   5 C :   -0.068106
   6 H :    0.022930
   7 H :    0.032475
   8 H :    0.033786
   9 H :    0.021973
  10 H :    0.024800
  11 H :    0.020994
  12 H :    0.022586
  13 H :    0.036770
  14 H :    0.032097
  15 H :    0.023655

  Mayer bond orders larger than 0.100000
B(  0-C ,  1-C ) :   1.0853 B(  0-C ,  7-H ) :   0.9520 B(  0-C ,  8-H ) :   0.9499
B(  0-C , 10-H ) :   0.9587 B(  1-C ,  2-C ) :   1.9535 B(  1-C ,  6-H ) :   0.9504
B(  2-C ,  3-C ) :   1.0564 B(  2-C , 15-H ) :   0.9489 B(  3-C ,  4-C ) :   1.0208
B(  3-C , 13-H ) :   0.9070 B(  3-C , 14-H ) :   0.9127 B(  4-C ,  5-C ) :   2.0315
B(  4-C ,  9-H ) :   0.9590 B(  5-C , 11-H ) :   0.9319 B(  5-C , 12-H ) :   0.9495

Dispersion correction           -0.021183134
FINAL SINGLE POINT ENERGY      -234.300395648585
Dispersion correction             ... done (  0.0 sec)

DIPOLE MOMENT
-------------

Method             : SCF
Type of density    : Electron Density
Multiplicity       :   1
Irrep              :   0
Energy             :  -234.2792125142503608 Eh
Basis              : AO
                                X                 Y                 Z
Electronic contribution:      1.533546609       1.148211822      -0.929143666
Nuclear contribution   :     -1.661855014      -1.123379235       1.083354910
                        -----------------------------------------
Total Dipole Moment    :     -0.128308405       0.024832587       0.154211244
                        -----------------------------------------
Magnitude (a.u.)       :      0.202140574
Magnitude (Debye)      :      0.513800508

Rotational constants in cm-1:             0.224196             0.063408             0.061495
Rotational constants in MHz :          6721.218653          1900.923086          1843.580436

                             ****ORCA TERMINATED NORMALLY****
TOTAL RUN TIME: 0 days 0 hours 0 minutes 18 seconds 244 msec
