                         Program Version 6.1.0  -  RELEASE   -
|  1> ! B3LYP def2-SVP d3 EnGrad
|  2> %pal nprocs 6 end
|  3> *xyz 0 1
|  4> C   1.79963900415232 -0.5158765756471 0.22826842330316
|  5> O   1.17898069352929 -0.50887675312107 1.26334518092648
|  6> C   -1.74240558881911 0.63227682172289 -0.29148275960642
|  7> O   -1.20291601749182 -0.66341323464817 -0.22940581628069
|  8> H   2.91327996676335 -0.42496624117495 0.21280770853119
|  9> H   1.28360453272434 -0.613983355663 -0.75516336697496
| 10> H   -0.96985422277761 1.42347001279988 -0.39195318158148
| 11> H   -2.39171513495933 0.69213930466347 -1.17998970881522
| 12> H   -0.62254960276773 -0.70685014621982 0.54934649994336
| 13> H   -2.3650336303537 0.88708016728785 0.59047202055459
| 14> *
| 15>
| 16>                          ****END OF INPUT****

CARTESIAN COORDINATES (ANGSTROEM)
---------------------------------
  C      1.799639   -0.515877    0.228268
  O      1.178981   -0.508877    1.263345
  C     -1.742406    0.632277   -0.291483
  O     -1.202916   -0.663413   -0.229406
  H      2.913280   -0.424966    0.212808
  H      1.283605   -0.613983   -0.755163
  H     -0.969854    1.423470   -0.391953
  H     -2.391715    0.692139   -1.179990
  H     -0.622550   -0.706850    0.549346
  H     -2.365034    0.887080    0.590472

 Total Charge           Charge          ....    0
 Multiplicity           Mult            ....    1
 Number of Electrons    NEL             ....   34
 Basis Dimension        Dim             ....   86

ORBITAL ENERGIES
----------------

  NO   OCC          E(Eh)            E(eV)
   0   2.0000     -19.170693      -521.6611
   1   2.0000     -19.107825      -519.9504
   2   2.0000     -10.299552      -280.2650
   3   2.0000     -10.217909      -278.0434
   4   2.0000      -1.067410       -29.0457
   5   2.0000      -0.985658       -26.8211
   6   2.0000      -0.657535       -17.8924
   7   2.0000      -0.635319       -17.2879
   8   2.0000      -0.517674       -14.0866
   9   2.0000      -0.485611       -13.2141
  10   2.0000      -0.463901       -12.6234
  11   2.0000      -0.424637       -11.5550
  12   2.0000      -0.418546       -11.3892
  13   2.0000      -0.409239       -11.1359
  14   2.0000      -0.320235        -8.7140
  15   2.0000      -0.283366        -7.7108
  16   2.0000      -0.255414        -6.9502
  17   0.0000      -0.059444        -1.6175
  18   0.0000       0.068330         1.8594
  19   0.0000       0.081608         2.2207
  20   0.0000       0.119801         3.2600
  21   0.0000       0.137973         3.7544

MULLIKEN ATOMIC CHARGES
-----------------------
   0 C :    0.171910
   1 O :   -0.228584
   2 C :    0.159323
   3 O :   -0.348024
   4 H :    0.037494
   5 H :    0.044577
   6 H :   -0.016429
   7 H :    0.012786
   8 H :    0.167127
   9 H :   -0.000180
Sum of atomic charges:   -0.0000000

LOEWDIN ATOMIC CHARGES
----------------------
   0 C :    0.154505
   1 O :   -0.113586
   2 C :    0.058270
   3 O :   -0.159598
   4 H :    0.000772
   5 H :   -0.000916
   6 H :   -0.005828
   7 H :    0.015185
   8 H :    0.050085
   9 H :    0.001110

  Mayer bond orders larger than 0.100000
B(  0-C ,  1-O ) :   2.0580 B(  0-C ,  4-H ) :   0.9216 B(  0-C ,  5-H ) :   0.9139
B(  2-C ,  3-O ) :   1.0526 B(  2-C ,  6-H ) :   0.9617 B(  2-C ,  7-H ) :   0.9816
B(  2-C ,  9-H ) :   0.9714 B(  3-O ,  8-H ) :   0.9398

Dispersion correction           -0.007568821
FINAL SINGLE POINT ENERGY      -229.941228421560
Dispersion correction             ... done (  0.0 sec)

DIPOLE MOMENT
-------------

Method             : SCF
Type of density    : Electron Density
Multiplicity       :   1
Irrep              :   0
Energy             :  -229.9336596007186415 Eh
Basis              : AO
                                X                 Y                 Z
Electronic contribution:      2.621588011      -2.235022079       1.962503571
Nuclear contribution   :     -1.849532460       2.628785755      -2.248275776
                        -----------------------------------------
Total Dipole Moment    :      0.772055551       0.393763677      -0.285772205
                        -----------------------------------------
Magnitude (a.u.)       :      0.912570742
Magnitude (Debye)      :      2.319570487

Rotational constants in cm-1:             0.609591             0.095885             0.095080
Rotational constants in MHz :         18275.073615          2874.572096          2850.438158

                             ****ORCA TERMINATED NORMALLY****
TOTAL RUN TIME: 0 days 0 hours 0 minutes 8 seconds 887 msec
