                         Program Version 6.1.0  -  RELEASE   -
|  1> ! B3LYP def2-SVP d3 EnGrad
|  2> %pal nprocs 6 end
|  3> *xyz 0 1
|  4> H   1.43970608052127 -1.29260858594726 -0.32371090267245
|  5> C   1.87601145990061 -0.29675438010803 -0.23943031236299
|  6> C   1.14282090150972 0.8021724874423 -0.02688475821611
|  7> H   2.96140748485997 -0.1985022340108 -0.29794829764359
|  8> H   1.60047945432065 1.78620933789724 0.11608929579095
|  9> O   -0.93484608780468 -1.28323727940806 0.48854009828061
| 10> H   -1.25764850698306 -1.00766634622347 1.35843370293689
| 11> O   -0.21284545959495 0.90869400837345 0.04377841087032
| 12> C   -0.99792262672118 -0.19007972795132 -0.36765443157649
| 13> H   -2.01947923572982 0.22185362096452 -0.45199125654143
| 14> H   -0.65395246427854 -0.54769990102858 -1.3538135488657
| 15> *
| 16>
| 17>                          ****END OF INPUT****

CARTESIAN COORDINATES (ANGSTROEM)
---------------------------------
  H      1.439706   -1.292609   -0.323711
  C      1.876011   -0.296754   -0.239430
  C      1.142821    0.802172   -0.026885
  H      2.961407   -0.198502   -0.297948
  H      1.600479    1.786209    0.116089
  O     -0.934846   -1.283237    0.488540
  H     -1.257649   -1.007666    1.358434
  O     -0.212845    0.908694    0.043778
  C     -0.997923   -0.190080   -0.367654
  H     -2.019479    0.221854   -0.451991
  H     -0.653952   -0.547700   -1.353814

 Total Charge           Charge          ....    0
 Multiplicity           Mult            ....    1
 Number of Electrons    NEL             ....   40
 Basis Dimension        Dim             ....  100

ORBITAL ENERGIES
----------------

  NO   OCC          E(Eh)            E(eV)
   0   2.0000     -19.160162      -521.3745
   1   2.0000     -19.144148      -520.9387
   2   2.0000     -10.287333      -279.9325
   3   2.0000     -10.236908      -278.5604
   4   2.0000     -10.167329      -276.6671
   5   2.0000      -1.072594       -29.1868
   6   2.0000      -1.006983       -27.4014
   7   2.0000      -0.747816       -20.3491
   8   2.0000      -0.683930       -18.6107
   9   2.0000      -0.587724       -15.9928
  10   2.0000      -0.532416       -14.4878
  11   2.0000      -0.486321       -13.2335
  12   2.0000      -0.478109       -13.0100
  13   2.0000      -0.447058       -12.1651
  14   2.0000      -0.391169       -10.6442
  15   2.0000      -0.381148       -10.3716
  16   2.0000      -0.365124        -9.9355
  17   2.0000      -0.322160        -8.7664
  18   2.0000      -0.296884        -8.0786
  19   2.0000      -0.233438        -6.3522
  20   0.0000       0.029031         0.7900
  21   0.0000       0.059037         1.6065
  22   0.0000       0.091439         2.4882
  23   0.0000       0.099417         2.7053
  24   0.0000       0.115579         3.1451

MULLIKEN ATOMIC CHARGES
-----------------------
   0 H :    0.039927
   1 C :   -0.095506
   2 C :    0.120008
   3 H :    0.018742
   4 H :    0.010775
   5 O :   -0.296568
   6 H :    0.168849
   7 O :   -0.321290
   8 C :    0.337021
   9 H :    0.010173
  10 H :    0.007868
Sum of atomic charges:   -0.0000000

LOEWDIN ATOMIC CHARGES
----------------------
   0 H :    0.026220
   1 C :   -0.135050
   2 C :    0.049314
   3 H :    0.029224
   4 H :    0.022152
   5 O :   -0.119872
   6 H :    0.081810
   7 O :   -0.119642
   8 C :    0.152054
   9 H :    0.005114
  10 H :    0.008677

  Mayer bond orders larger than 0.100000
B(  0-H ,  1-C ) :   0.9504 B(  1-C ,  2-C ) :   1.9086 B(  1-C ,  3-H ) :   0.9426
B(  2-C ,  4-H ) :   0.9728 B(  2-C ,  7-O ) :   1.0975 B(  5-O ,  6-H ) :   0.9734
B(  5-O ,  8-C ) :   1.0883 B(  7-O ,  8-C ) :   0.9863 B(  8-C ,  9-H ) :   0.9575
B(  8-C , 10-H ) :   0.9439

Dispersion correction           -0.011773672
FINAL SINGLE POINT ENERGY      -268.001995891629
Dispersion correction             ... done (  0.1 sec)

DIPOLE MOMENT
-------------

Method             : SCF
Type of density    : Electron Density
Multiplicity       :   1
Irrep              :   0
Energy             :  -267.9902222199281709 Eh
Basis              : AO
                                X                 Y                 Z
Electronic contribution:     -1.633623018       0.877746064       1.024660017
Nuclear contribution   :      1.314569917      -0.731383326      -0.881677270
                        -----------------------------------------
Total Dipole Moment    :     -0.319053101       0.146362738       0.142982746
                        -----------------------------------------
Magnitude (a.u.)       :      0.379026382
Magnitude (Debye)      :      0.963408498

Rotational constants in cm-1:             0.315210             0.136284             0.105275
Rotational constants in MHz :          9449.760235          4085.684438          3156.066249

                             ****ORCA TERMINATED NORMALLY****
TOTAL RUN TIME: 0 days 0 hours 0 minutes 11 seconds 622 msec
