                         Program Version 6.1.0  -  RELEASE   -
|  1> ! B3LYP def2-SVP d3 EnGrad
|  2> %pal nprocs 6 end
|  3> *xyz 0 1
|  4> N   1.27504990023343 -0.49916387252576 0.59455478102242
|  5> B   1.58803379177007 0.21552864719899 -0.84884875793917
|  6> B   -1.91376448594128 0.14825054246751 -0.53451414849323
|  7> N   -1.77856172409976 0.23101150169273 0.86395076833628
|  8> H   0.31431793264166 -0.26197797690864 0.88045734969612
|  9> H   1.92335550301289 -0.19096971627105 1.32163404721626
| 10> H   1.3403394303246 -1.51722566462582 0.52643582942675
| 11> H   1.5602590096563 1.41954306569179 -0.62855116417129
| 12> H   2.68645422311646 -0.19344472852224 -1.20201291465242
| 13> H   0.68173574452909 -0.15351392148615 -1.58761390050511
| 14> H   -1.8253904522321 1.15152247442261 -1.19002374863022
| 15> H   -2.13883450333686 -0.93099592143678 -1.0239223210946
| 16> H   -2.00845025534414 -0.54019887473566 1.48251247157806
| 17> H   -1.70454411433034 1.12163444503847 1.34594170821016
| 18> *
| 19>
| 20>                          ****END OF INPUT****

CARTESIAN COORDINATES (ANGSTROEM)
---------------------------------
  N      1.275050   -0.499164    0.594555
  B      1.588034    0.215529   -0.848849
  B     -1.913764    0.148251   -0.534514
  N     -1.778562    0.231012    0.863951
  H      0.314318   -0.261978    0.880457
  H      1.923356   -0.190970    1.321634
  H      1.340339   -1.517226    0.526436
  H      1.560259    1.419543   -0.628551
  H      2.686454   -0.193445   -1.202013
  H      0.681736   -0.153514   -1.587614
  H     -1.825390    1.151522   -1.190024
  H     -2.138835   -0.930996   -1.023922
  H     -2.008450   -0.540199    1.482512
  H     -1.704544    1.121634    1.345942

 Total Charge           Charge          ....    0
 Multiplicity           Mult            ....    1
 Number of Electrons    NEL             ....   34
 Basis Dimension        Dim             ....  106

ORBITAL ENERGIES
----------------

  NO   OCC          E(Eh)            E(eV)
   0   2.0000     -14.392499      -391.6398
   1   2.0000     -14.347317      -390.4104
   2   2.0000      -6.754758      -183.8063
   3   2.0000      -6.681236      -181.8057
   4   2.0000      -0.923872       -25.1398
   5   2.0000      -0.872267       -23.7356
   6   2.0000      -0.539488       -14.6802
   7   2.0000      -0.535851       -14.5812
   8   2.0000      -0.529420       -14.4062
   9   2.0000      -0.524834       -14.2814
  10   2.0000      -0.496393       -13.5076
  11   2.0000      -0.392342       -10.6762
  12   2.0000      -0.343867        -9.3571
  13   2.0000      -0.322157        -8.7663
  14   2.0000      -0.316105        -8.6017
  15   2.0000      -0.262097        -7.1320
  16   2.0000      -0.261688        -7.1209
  17   0.0000       0.003784         0.1030
  18   0.0000       0.016548         0.4503
  19   0.0000       0.049961         1.3595
  20   0.0000       0.086399         2.3510
  21   0.0000       0.097513         2.6535

MULLIKEN ATOMIC CHARGES
-----------------------
   0 N :    0.028882
   1 B :   -0.174322
   2 B :   -0.019001
   3 N :   -0.107321
   4 H :    0.084287
   5 H :    0.139687
   6 H :    0.139483
   7 H :   -0.104618
   8 H :   -0.093377
   9 H :   -0.068141
  10 H :   -0.029546
  11 H :   -0.043942
  12 H :    0.120369
  13 H :    0.127559
Sum of atomic charges:    0.0000000

LOEWDIN ATOMIC CHARGES
----------------------
   0 N :    0.219782
   1 B :   -0.365729
   2 B :   -0.086164
   3 N :    0.032879
   4 H :    0.078138
   5 H :    0.101283
   6 H :    0.102823
   7 H :   -0.060155
   8 H :   -0.059644
   9 H :   -0.046754
  10 H :   -0.034277
  11 H :   -0.042614
  12 H :    0.077613
  13 H :    0.082820

  Mayer bond orders larger than 0.100000
B(  0-N ,  1-B ) :   0.7745 B(  0-N ,  4-H ) :   0.9260 B(  0-N ,  5-H ) :   0.9655
B(  0-N ,  6-H ) :   0.9695 B(  1-B ,  7-H ) :   0.9730 B(  1-B ,  8-H ) :   0.9663
B(  1-B ,  9-H ) :   0.9391 B(  2-B ,  3-N ) :   1.4391 B(  2-B , 10-H ) :   0.9702
B(  2-B , 11-H ) :   0.9680 B(  3-N ,  4-H ) :   0.1399 B(  3-N , 12-H ) :   0.9578
B(  3-N , 13-H ) :   0.9576

Dispersion correction           -0.013332245
FINAL SINGLE POINT ENERGY      -165.032760536043
Dispersion correction             ... done (  0.1 sec)

DIPOLE MOMENT
-------------

Method             : SCF
Type of density    : Electron Density
Multiplicity       :   1
Irrep              :   0
Energy             :  -165.0194282914534654 Eh
Basis              : AO
                                X                 Y                 Z
Electronic contribution:     -2.966793868      -0.423265819       2.278167591
Nuclear contribution   :      2.306626756      -0.376767800       0.270746524
                        -----------------------------------------
Total Dipole Moment    :     -0.660167112      -0.800033619       2.548914115
                        -----------------------------------------
Magnitude (a.u.)       :      2.751878917
Magnitude (Debye)      :      6.994720328

Rotational constants in cm-1:             0.342387             0.095539             0.081745
Rotational constants in MHz :         10264.491152          2864.185998          2450.646360

                             ****ORCA TERMINATED NORMALLY****
TOTAL RUN TIME: 0 days 0 hours 0 minutes 12 seconds 27 msec
