                         Program Version 6.1.0  -  RELEASE   -
|  1> ! B3LYP def2-SVP d3 EnGrad
|  2> %pal nprocs 6 end
|  3> *xyz 0 1
|  4> C   -1.32079973217601 0.42567773495474 -0.23631001264401
|  5> C   0.0452560299562 1.04726493821129 -0.4973776338658
|  6> C   1.08682218603532 -0.0471865565388 -0.3764137510888
|  7> C   1.03842753635559 1.06846591197701 0.63883663510874
|  8> C   -1.01780113872525 -0.90484492295815 0.48790070024425
|  9> C   0.36564398034658 -1.34606339980396 -0.03954774637912
| 10> H   0.12745408242045 1.81858223535424 -1.2694584651686
| 11> H   -1.99411576893326 1.0759991034116 0.34771581508966
| 12> H   -1.81576790233182 0.23295050117392 -1.20411543944536
| 13> H   -0.97250304016204 -0.74026613166639 1.57642313707908
| 14> H   -1.79641128922781 -1.66520837673018 0.3206966163454
| 15> H   0.25308703570688 -1.94124088779108 -0.9626295847099
| 16> H   0.90967970532839 -1.97429427656022 0.68626995277231
| 17> H   1.83250661383491 1.81880817893873 0.58870869451625
| 18> H   0.69657505341507 0.85610172190859 1.65742228708079
| 19> H   1.94153364815682 -0.08825277388137 -1.05858320493491
| 20> *
| 21>
| 22>                          ****END OF INPUT****

CARTESIAN COORDINATES (ANGSTROEM)
---------------------------------
  C     -1.320800    0.425678   -0.236310
  C      0.045256    1.047265   -0.497378
  C      1.086822   -0.047187   -0.376414
  C      1.038428    1.068466    0.638837
  C     -1.017801   -0.904845    0.487901
  C      0.365644   -1.346063   -0.039548
  H      0.127454    1.818582   -1.269458
  H     -1.994116    1.075999    0.347716
  H     -1.815768    0.232951   -1.204115
  H     -0.972503   -0.740266    1.576423
  H     -1.796411   -1.665208    0.320697
  H      0.253087   -1.941241   -0.962630
  H      0.909680   -1.974294    0.686270
  H      1.832507    1.818808    0.588709
  H      0.696575    0.856102    1.657422
  H      1.941534   -0.088253   -1.058583

 Total Charge           Charge          ....    0
 Multiplicity           Mult            ....    1
 Number of Electrons    NEL             ....   46
 Basis Dimension        Dim             ....  134

ORBITAL ENERGIES
----------------

  NO   OCC          E(Eh)            E(eV)
   0   2.0000     -10.181232      -277.0454
   1   2.0000     -10.181078      -277.0412
   2   2.0000     -10.178294      -276.9655
   3   2.0000     -10.177477      -276.9432
   4   2.0000     -10.177459      -276.9427
   5   2.0000     -10.176778      -276.9242
   6   2.0000      -0.867739       -23.6124
   7   2.0000      -0.747986       -20.3537
   8   2.0000      -0.692237       -18.8367
   9   2.0000      -0.606786       -16.5115
  10   2.0000      -0.542422       -14.7600
  11   2.0000      -0.532030       -14.4773
  12   2.0000      -0.502864       -13.6836
  13   2.0000      -0.454444       -12.3661
  14   2.0000      -0.430868       -11.7245
  15   2.0000      -0.400490       -10.8979
  16   2.0000      -0.389171       -10.5899
  17   2.0000      -0.348740        -9.4897
  18   2.0000      -0.335223        -9.1219
  19   2.0000      -0.331068        -9.0088
  20   2.0000      -0.324868        -8.8401
  21   2.0000      -0.277625        -7.5546
  22   2.0000      -0.265123        -7.2144
  23   0.0000       0.057704         1.5702
  24   0.0000       0.074809         2.0356
  25   0.0000       0.101470         2.7611
  26   0.0000       0.105802         2.8790
  27   0.0000       0.118253         3.2178

MULLIKEN ATOMIC CHARGES
-----------------------
   0 C :    0.134373
   1 C :   -0.131526
   2 C :   -0.131835
   3 C :    0.025749
   4 C :   -0.069292
   5 C :    0.134390
   6 H :    0.003828
   7 H :    0.000484
   8 H :   -0.003216
   9 H :    0.007563
  10 H :    0.001117
  11 H :   -0.003036
  12 H :    0.000603
  13 H :    0.013268
  14 H :    0.013834
  15 H :    0.003696
Sum of atomic charges:   -0.0000000

LOEWDIN ATOMIC CHARGES
----------------------
   0 C :   -0.022864
   1 C :   -0.039041
   2 C :   -0.039034
   3 C :   -0.042012
   4 C :   -0.034322
   5 C :   -0.022890
   6 H :    0.017962
   7 H :    0.019207
   8 H :    0.021052
   9 H :    0.018456
  10 H :    0.021321
  11 H :    0.021092
  12 H :    0.019219
  13 H :    0.025568
  14 H :    0.018360
  15 H :    0.017927

  Mayer bond orders larger than 0.100000
B(  0-C ,  1-C ) :   1.0631 B(  0-C ,  4-C ) :   1.0769 B(  0-C ,  7-H ) :   0.9413
B(  0-C ,  8-H ) :   0.9357 B(  1-C ,  2-C ) :   0.9508 B(  1-C ,  3-C ) :   0.9896
B(  1-C ,  6-H ) :   0.9535 B(  2-C ,  3-C ) :   0.9897 B(  2-C ,  5-C ) :   1.0632
B(  2-C , 15-H ) :   0.9536 B(  3-C , 13-H ) :   0.9438 B(  3-C , 14-H ) :   0.9475
B(  4-C ,  5-C ) :   1.0767 B(  4-C ,  9-H ) :   0.9413 B(  4-C , 10-H ) :   0.9437
B(  5-C , 11-H ) :   0.9357 B(  5-C , 12-H ) :   0.9413

Dispersion correction           -0.022777744
FINAL SINGLE POINT ENERGY      -234.318478693203
Dispersion correction             ... done (  0.1 sec)

DIPOLE MOMENT
-------------

Method             : SCF
Type of density    : Electron Density
Multiplicity       :   1
Irrep              :   0
Energy             :  -234.2957009494651288 Eh
Basis              : AO
                                X                 Y                 Z
Electronic contribution:      0.913582958       0.797969820      -0.648241290
Nuclear contribution   :     -0.944216138      -0.833213749       0.593122714
                        -----------------------------------------
Total Dipole Moment    :     -0.030633180      -0.035243930      -0.055118576
                        -----------------------------------------
Magnitude (a.u.)       :      0.072239765
Magnitude (Debye)      :      0.183618891

Rotational constants in cm-1:             0.184776             0.140306             0.103423
Rotational constants in MHz :          5539.448440          4206.279496          3100.546432

                             ****ORCA TERMINATED NORMALLY****
TOTAL RUN TIME: 0 days 0 hours 0 minutes 20 seconds 230 msec
