                         Program Version 6.1.0  -  RELEASE   -
|  1> ! B3LYP def2-SVP d3 EnGrad
|  2> %pal nprocs 6 end
|  3> *xyz 0 1
|  4> C   2.43154406701321 0.88068969257535 0.15411745101399
|  5> C   1.12592643924109 0.60586507782254 0.1720787576471
|  6> C   0.48641299501614 -0.66118734618878 -0.34567497855472
|  7> C   -0.09821786816377 -1.49637257737751 0.80129455638959
|  8> O   -0.49170415029998 -0.37911331927012 -1.3254873986563
|  9> H   3.15449394337981 0.17253111440805 -0.26561684165948
| 10> H   1.26426706844537 -1.25920914954819 -0.85233270998223
| 11> H   2.83158428305154 1.81808981443317 0.55162007058734
| 12> H   0.67796471399614 -1.8049845359406 1.51910085722432
| 13> H   -0.58914984687436 -2.39402050885063 0.39361128653634
| 14> H   -0.85728253571134 -0.91111804912946 1.34736970925151
| 15> H   -1.19483736987357 0.1440179137117 -0.89696574695177
| 16> H   0.42325331807677 1.33815879141906 0.59448456540625
| 17> H   -2.94319445862429 0.24719031696773 0.73644457903933
| 18> O   -2.51073968842309 0.92562972209613 0.19905816728244
| 19> H   -2.2441089102497 1.60480404287157 0.83420467542627
| 20> *
| 21>
| 22>                          ****END OF INPUT****

CARTESIAN COORDINATES (ANGSTROEM)
---------------------------------
  C      2.431544    0.880690    0.154117
  C      1.125926    0.605865    0.172079
  C      0.486413   -0.661187   -0.345675
  C     -0.098218   -1.496373    0.801295
  O     -0.491704   -0.379113   -1.325487
  H      3.154494    0.172531   -0.265617
  H      1.264267   -1.259209   -0.852333
  H      2.831584    1.818090    0.551620
  H      0.677965   -1.804985    1.519101
  H     -0.589150   -2.394021    0.393611
  H     -0.857283   -0.911118    1.347370
  H     -1.194837    0.144018   -0.896966
  H      0.423253    1.338159    0.594485
  H     -2.943194    0.247190    0.736445
  O     -2.510740    0.925630    0.199058
  H     -2.244109    1.604804    0.834205

 Total Charge           Charge          ....    0
 Multiplicity           Mult            ....    1
 Number of Electrons    NEL             ....   50
 Basis Dimension        Dim             ....  134

ORBITAL ENERGIES
----------------

  NO   OCC          E(Eh)            E(eV)
   0   2.0000     -19.164997      -521.5061
   1   2.0000     -19.093931      -519.5723
   2   2.0000     -10.221222      -278.1336
   3   2.0000     -10.180133      -277.0155
   4   2.0000     -10.177128      -276.9337
   5   2.0000     -10.173184      -276.8264
   6   2.0000      -1.022067       -27.8118
   7   2.0000      -0.978400       -26.6236
   8   2.0000      -0.768780       -20.9196
   9   2.0000      -0.709093       -19.2954
  10   2.0000      -0.609388       -16.5823
  11   2.0000      -0.556828       -15.1521
  12   2.0000      -0.553709       -15.0672
  13   2.0000      -0.478110       -13.0100
  14   2.0000      -0.453613       -12.3434
  15   2.0000      -0.433288       -11.7904
  16   2.0000      -0.412196       -11.2164
  17   2.0000      -0.406755       -11.0684
  18   2.0000      -0.381157       -10.3718
  19   2.0000      -0.362265        -9.8577
  20   2.0000      -0.353196        -9.6109
  21   2.0000      -0.339707        -9.2439
  22   2.0000      -0.298899        -8.1334
  23   2.0000      -0.257987        -7.0202
  24   2.0000      -0.244834        -6.6623
  25   0.0000       0.013961         0.3799
  26   0.0000       0.015350         0.4177
  27   0.0000       0.077344         2.1046
  28   0.0000       0.089323         2.4306
  29   0.0000       0.109368         2.9761

MULLIKEN ATOMIC CHARGES
-----------------------
   0 C :   -0.030842
   1 C :   -0.049019
   2 C :    0.190286
   3 C :    0.034694
   4 O :   -0.336304
   5 H :    0.014089
   6 H :   -0.019357
   7 H :    0.014866
   8 H :    0.006773
   9 H :    0.014655
  10 H :   -0.047512
  11 H :    0.152568
  12 H :   -0.035960
  13 H :    0.176256
  14 O :   -0.257393
  15 H :    0.172200
Sum of atomic charges:    0.0000000

LOEWDIN ATOMIC CHARGES
----------------------
   0 C :   -0.061369
   1 C :   -0.035400
   2 C :    0.058822
   3 C :   -0.066888
   4 O :   -0.143163
   5 H :    0.021254
   6 H :    0.018161
   7 H :    0.021598
   8 H :    0.024202
   9 H :    0.024279
  10 H :    0.001977
  11 H :    0.038859
  12 H :    0.010851
  13 H :    0.086671
  14 O :   -0.086079
  15 H :    0.086225

  Mayer bond orders larger than 0.100000
B(  0-C ,  1-C ) :   2.0166 B(  0-C ,  5-H ) :   0.9513 B(  0-C ,  7-H ) :   0.9467
B(  1-C ,  2-C ) :   1.0032 B(  1-C , 12-H ) :   0.9444 B(  2-C ,  3-C ) :   1.0581
B(  2-C ,  4-O ) :   1.0106 B(  2-C ,  6-H ) :   0.9241 B(  3-C ,  8-H ) :   0.9555
B(  3-C ,  9-H ) :   0.9592 B(  3-C , 10-H ) :   0.9489 B(  4-O , 11-H ) :   0.9446
B( 11-H , 14-O ) :   0.1218 B( 13-H , 14-O ) :   0.9848 B( 14-O , 15-H ) :   0.9885

Dispersion correction           -0.018481218
FINAL SINGLE POINT ENERGY      -308.469745909344
Dispersion correction             ... done (  0.1 sec)

DIPOLE MOMENT
-------------

Method             : SCF
Type of density    : Electron Density
Multiplicity       :   1
Irrep              :   0
Energy             :  -308.4512646916915060 Eh
Basis              : AO
                                X                 Y                 Z
Electronic contribution:     -1.000987732       1.225487102      -2.824652303
Nuclear contribution   :      0.458527086      -0.933385478       4.184634976
                        -----------------------------------------
Total Dipole Moment    :     -0.542460646       0.292101624       1.359982673
                        -----------------------------------------
Magnitude (a.u.)       :      1.493030402
Magnitude (Debye)      :      3.794981691

Rotational constants in cm-1:             0.132431             0.060924             0.054039
Rotational constants in MHz :          3970.176298          1826.445895          1620.054428

                             ****ORCA TERMINATED NORMALLY****
TOTAL RUN TIME: 0 days 0 hours 0 minutes 16 seconds 629 msec
