                         Program Version 6.1.0  -  RELEASE   -
|  1> ! B3LYP def2-SVP d3 EnGrad
|  2> %pal nprocs 6 end
|  3> *xyz 0 1
|  4> C   -1.0127892092921 1.0636900312237 -0.6391320124702
|  5> C   -1.37715220886746 -0.27250438589238 -0.42522016236649
|  6> H   -1.02491254781517 1.75384517561302 0.20960616471742
|  7> H   -1.25348677482987 1.53507222563429 -1.59764215019202
|  8> C   -1.05339930702211 -0.92812863866449 0.77023099778184
|  9> H   -1.5893818950056 -0.89126337472273 -1.30600670789163
| 10> C   1.01279549862121 -1.06368223071141 0.63914306747804
| 11> H   -1.32490213201356 -1.98174623148008 0.89081807087646
| 12> H   -1.06753517221954 -0.35624667419552 1.70267987427982
| 13> C   1.37714894735454 0.27251175202754 0.42521963753594
| 14> H   1.02494563315216 -1.7538501249689 -0.20958426124707
| 15> H   1.25347663034391 -1.53504722923863 1.59766715692013
| 16> C   1.05340231461384 0.92811561601584 -0.7702447463223
| 17> H   1.58934947867482 0.89128674721266 1.30600116617694
| 18> H   1.06753679469836 0.35621506267096 -1.70268266377669
| 19> H   1.32490394960657 1.98173227947613 -0.89085343150022
| 20> *
| 21>
| 22>                          ****END OF INPUT****

CARTESIAN COORDINATES (ANGSTROEM)
---------------------------------
  C     -1.012789    1.063690   -0.639132
  C     -1.377152   -0.272504   -0.425220
  H     -1.024913    1.753845    0.209606
  H     -1.253487    1.535072   -1.597642
  C     -1.053399   -0.928129    0.770231
  H     -1.589382   -0.891263   -1.306007
  C      1.012795   -1.063682    0.639143
  H     -1.324902   -1.981746    0.890818
  H     -1.067535   -0.356247    1.702680
  C      1.377149    0.272512    0.425220
  H      1.024946   -1.753850   -0.209584
  H      1.253477   -1.535047    1.597667
  C      1.053402    0.928116   -0.770245
  H      1.589349    0.891287    1.306001
  H      1.067537    0.356215   -1.702683
  H      1.324904    1.981732   -0.890853

 Total Charge           Charge          ....    0
 Multiplicity           Mult            ....    1
 Number of Electrons    NEL             ....   46
 Basis Dimension        Dim             ....  134

ORBITAL ENERGIES
----------------

  NO   OCC          E(Eh)            E(eV)
   0   2.0000     -10.189137      -277.2605
   1   2.0000     -10.189119      -277.2600
   2   2.0000     -10.189069      -277.2587
   3   2.0000     -10.189058      -277.2584
   4   2.0000     -10.172342      -276.8035
   5   2.0000     -10.172335      -276.8033
   6   2.0000      -0.797681       -21.7060
   7   2.0000      -0.747023       -20.3275
   8   2.0000      -0.686524       -18.6813
   9   2.0000      -0.627503       -17.0752
  10   2.0000      -0.547629       -14.9017
  11   2.0000      -0.537021       -14.6131
  12   2.0000      -0.470212       -12.7951
  13   2.0000      -0.452633       -12.3168
  14   2.0000      -0.432456       -11.7677
  15   2.0000      -0.408586       -11.1182
  16   2.0000      -0.373742       -10.1700
  17   2.0000      -0.361943        -9.8490
  18   2.0000      -0.356515        -9.7013
  19   2.0000      -0.356334        -9.6963
  20   2.0000      -0.338835        -9.2202
  21   2.0000      -0.252835        -6.8800
  22   2.0000      -0.210291        -5.7223
  23   0.0000      -0.008827        -0.2402
  24   0.0000       0.027894         0.7590
  25   0.0000       0.073731         2.0063
  26   0.0000       0.075077         2.0429
  27   0.0000       0.090317         2.4577

MULLIKEN ATOMIC CHARGES
-----------------------
   0 C :    0.006480
   1 C :   -0.073055
   2 H :    0.016568
   3 H :    0.017022
   4 C :    0.006789
   5 H :   -0.007229
   6 C :    0.006480
   7 H :    0.016963
   8 H :    0.016461
   9 C :   -0.073052
  10 H :    0.016569
  11 H :    0.017022
  12 C :    0.006788
  13 H :   -0.007229
  14 H :    0.016461
  15 H :    0.016964
Sum of atomic charges:    0.0000000

LOEWDIN ATOMIC CHARGES
----------------------
   0 C :   -0.018717
   1 C :   -0.074353
   2 H :    0.022493
   3 H :    0.024098
   4 C :   -0.018690
   5 H :    0.018585
   6 C :   -0.018718
   7 H :    0.024078
   8 H :    0.022505
   9 C :   -0.074352
  10 H :    0.022493
  11 H :    0.024098
  12 C :   -0.018689
  13 H :    0.018585
  14 H :    0.022504
  15 H :    0.024079

  Mayer bond orders larger than 0.100000
B(  0-C ,  1-C ) :   1.4840 B(  0-C ,  2-H ) :   0.9440 B(  0-C ,  3-H ) :   0.9447
B(  0-C , 12-C ) :   0.5457 B(  1-C ,  4-C ) :   1.4842 B(  1-C ,  5-H ) :   0.9614
B(  1-C ,  9-C ) :   0.1067 B(  4-C ,  6-C ) :   0.5457 B(  4-C ,  7-H ) :   0.9447
B(  4-C ,  8-H ) :   0.9438 B(  6-C ,  9-C ) :   1.4840 B(  6-C , 10-H ) :   0.9440
B(  6-C , 11-H ) :   0.9447 B(  9-C , 12-C ) :   1.4842 B(  9-C , 13-H ) :   0.9614
B( 12-C , 14-H ) :   0.9438 B( 12-C , 15-H ) :   0.9447

Dispersion correction           -0.025277655
FINAL SINGLE POINT ENERGY      -234.245353931438
Dispersion correction             ... done (  0.1 sec)

DIPOLE MOMENT
-------------

Method             : SCF
Type of density    : Electron Density
Multiplicity       :   1
Irrep              :   0
Energy             :  -234.2200762760864734 Eh
Basis              : AO
                                X                 Y                 Z
Electronic contribution:      0.000012422       0.000007199      -0.000008733
Nuclear contribution   :     -0.000013247      -0.000004706       0.000007064
                        -----------------------------------------
Total Dipole Moment    :     -0.000000825       0.000002493      -0.000001669
                        -----------------------------------------
Magnitude (a.u.)       :      0.000003111
Magnitude (Debye)      :      0.000007909

Rotational constants in cm-1:             0.149461             0.128687             0.079454
Rotational constants in MHz :          4480.716774          3857.938268          2381.981732

                             ****ORCA TERMINATED NORMALLY****
TOTAL RUN TIME: 0 days 0 hours 0 minutes 19 seconds 457 msec
