                         Program Version 6.1.0  -  RELEASE   -
|  1> ! B3LYP def2-SVP d3 EnGrad
|  2> %pal nprocs 6 end
|  3> *xyz 0 1
|  4> C   2.523903992413 -1.11489596658978 0.35839293671941
|  5> C   1.56706254601717 -0.02144463889259 -0.07043131650193
|  6> H   3.07829182803113 -0.83780811044105 1.26640140211737
|  7> H   3.22563760168936 -1.25824106962302 -0.48019138695689
|  8> H   1.98382299945092 -2.05789318009988 0.51841579039146
|  9> O   2.2065911472472 1.19503145834395 0.11401433895331
| 10> O   1.58824054143615 2.19822510018581 -0.70098237919364
| 11> H   1.18683840332787 1.58919288530521 -1.38406269750086
| 12> O   0.92160225790182 -0.13878636683468 -1.23665791094525
| 13> C   -1.22480432275063 1.05678709040901 0.172354283847
| 14> C   -0.57289401189214 -0.10121358564145 0.0212983399779
| 15> C   -1.00164071079183 -1.51448115119668 -0.12172776303062
| 16> H   0.63901200277441 -0.05596590424215 0.78989934896943
| 17> H   -1.94795673667368 -1.65614514535254 0.42509720431718
| 18> H   -0.26724181219529 -2.21211810680347 0.30291702966699
| 19> H   -1.1367543966554 -1.76965762886225 -1.18225620847274
| 20> C   -2.72803544128148 1.1501555184756 0.23507081660715
| 21> H   -0.64996744251076 1.98244563484448 0.22795372716491
| 22> H   -3.21586875874214 0.16489387294566 0.22317997136137
| 23> H   -3.12045631713498 1.7221179511815 -0.62518690643265
| 24> H   -3.05538336966068 1.6798013428883 1.1465013789411
| 25> *
| 26>
| 27>                          ****END OF INPUT****

CARTESIAN COORDINATES (ANGSTROEM)
---------------------------------
  C      2.523904   -1.114896    0.358393
  C      1.567063   -0.021445   -0.070431
  H      3.078292   -0.837808    1.266401
  H      3.225638   -1.258241   -0.480191
  H      1.983823   -2.057893    0.518416
  O      2.206591    1.195031    0.114014
  O      1.588241    2.198225   -0.700982
  H      1.186838    1.589193   -1.384063
  O      0.921602   -0.138786   -1.236658
  C     -1.224804    1.056787    0.172354
  C     -0.572894   -0.101214    0.021298
  C     -1.001641   -1.514481   -0.121728
  H      0.639012   -0.055966    0.789899
  H     -1.947957   -1.656145    0.425097
  H     -0.267242   -2.212118    0.302917
  H     -1.136754   -1.769658   -1.182256
  C     -2.728035    1.150156    0.235071
  H     -0.649967    1.982446    0.227954
  H     -3.215869    0.164894    0.223180
  H     -3.120456    1.722118   -0.625187
  H     -3.055383    1.679801    1.146501

 Total Charge           Charge          ....    0
 Multiplicity           Mult            ....    1
 Number of Electrons    NEL             ....   72
 Basis Dimension        Dim             ....  186

ORBITAL ENERGIES
----------------

  NO   OCC          E(Eh)            E(eV)
   0   2.0000     -19.204638      -522.5848
   1   2.0000     -19.171953      -521.6954
   2   2.0000     -19.092982      -519.5464
   3   2.0000     -10.317803      -280.7617
   4   2.0000     -10.283452      -279.8270
   5   2.0000     -10.213492      -277.9232
   6   2.0000     -10.198317      -277.5103
   7   2.0000     -10.197591      -277.4906
   8   2.0000     -10.182586      -277.0822
   9   2.0000      -1.133207       -30.8361
  10   2.0000      -0.984252       -26.7828
  11   2.0000      -0.893330       -24.3087
  12   2.0000      -0.813650       -22.1405
  13   2.0000      -0.737978       -20.0814
  14   2.0000      -0.733575       -19.9616
  15   2.0000      -0.671418       -18.2702
  16   2.0000      -0.601874       -16.3778
  17   2.0000      -0.573866       -15.6157
  18   2.0000      -0.518954       -14.1215
  19   2.0000      -0.491737       -13.3808
  20   2.0000      -0.475265       -12.9326
  21   2.0000      -0.454183       -12.3589
  22   2.0000      -0.441806       -12.0221
  23   2.0000      -0.430118       -11.7041
  24   2.0000      -0.423215       -11.5163
  25   2.0000      -0.411935       -11.2093
  26   2.0000      -0.410416       -11.1680
  27   2.0000      -0.403438       -10.9781
  28   2.0000      -0.384552       -10.4642
  29   2.0000      -0.381060       -10.3692
  30   2.0000      -0.370278       -10.0758
  31   2.0000      -0.346894        -9.4395
  32   2.0000      -0.320036        -8.7086
  33   2.0000      -0.272527        -7.4158
  34   2.0000      -0.258662        -7.0386
  35   2.0000      -0.195319        -5.3149
  36   0.0000      -0.072414        -1.9705
  37   0.0000       0.018057         0.4914
  38   0.0000       0.031009         0.8438
  39   0.0000       0.045299         1.2326
  40   0.0000       0.073238         1.9929

MULLIKEN ATOMIC CHARGES
-----------------------
   0 C :    0.099688
   1 C :    0.194480
   2 H :    0.031171
   3 H :    0.037538
   4 H :    0.007822
   5 O :   -0.185823
   6 O :   -0.146733
   7 H :    0.185916
   8 O :   -0.480497
   9 C :   -0.136062
  10 C :   -0.020055
  11 C :    0.131496
  12 H :    0.017611
  13 H :    0.033308
  14 H :    0.019027
  15 H :    0.059298
  16 C :    0.068534
  17 H :    0.023418
  18 H :    0.004981
  19 H :    0.030486
  20 H :    0.024396
Sum of atomic charges:   -0.0000000

LOEWDIN ATOMIC CHARGES
----------------------
   0 C :   -0.058095
   1 C :    0.105684
   2 H :    0.035724
   3 H :    0.045796
   4 H :    0.030514
   5 O :   -0.040085
   6 O :   -0.056860
   7 H :    0.047119
   8 O :   -0.354371
   9 C :   -0.119411
  10 C :    0.160043
  11 C :   -0.039485
  12 H :    0.021427
  13 H :    0.042650
  14 H :    0.039948
  15 H :    0.051158
  16 C :   -0.038571
  17 H :    0.036652
  18 H :    0.024458
  19 H :    0.034454
  20 H :    0.031251

  Mayer bond orders larger than 0.100000
B(  0-C ,  1-C ) :   1.0330 B(  0-C ,  2-H ) :   0.9463 B(  0-C ,  3-H ) :   0.9274
B(  0-C ,  4-H ) :   0.9462 B(  1-C ,  5-O ) :   1.0472 B(  1-C ,  8-O ) :   1.2203
B(  1-C , 10-C ) :   0.1365 B(  1-C , 12-H ) :   0.5573 B(  5-O ,  6-O ) :   0.9405
B(  6-O ,  7-H ) :   0.8834 B(  7-H ,  8-O ) :   0.1566 B(  8-O , 10-C ) :   0.3221
B(  9-C , 10-C ) :   1.8291 B(  9-C , 16-C ) :   1.0657 B(  9-C , 17-H ) :   0.9173
B( 10-C , 11-C ) :   1.0929 B( 10-C , 12-H ) :   0.3288 B( 11-C , 13-H ) :   0.9283
B( 11-C , 14-H ) :   0.9304 B( 11-C , 15-H ) :   0.9421 B( 16-C , 18-H ) :   0.9647
B( 16-C , 19-H ) :   0.9498 B( 16-C , 20-H ) :   0.9526

Dispersion correction           -0.030865658
FINAL SINGLE POINT ENERGY      -460.703892115214
Dispersion correction             ... done (  0.1 sec)

DIPOLE MOMENT
-------------

Method             : SCF
Type of density    : Electron Density
Multiplicity       :   1
Irrep              :   0
Energy             :  -460.6730264571583575 Eh
Basis              : AO
                                X                 Y                 Z
Electronic contribution:      6.852409448       5.085016598      -2.312055048
Nuclear contribution   :     -7.702578094      -6.153232722       2.903879589
                        -----------------------------------------
Total Dipole Moment    :     -0.850168645      -1.068216125       0.591824541
                        -----------------------------------------
Magnitude (a.u.)       :      1.487994859
Magnitude (Debye)      :      3.782182358

Rotational constants in cm-1:             0.074245             0.038405             0.028559
Rotational constants in MHz :          2225.812325          1151.352991           856.174661

                             ****ORCA TERMINATED NORMALLY****
TOTAL RUN TIME: 0 days 0 hours 0 minutes 33 seconds 444 msec
