                         Program Version 6.1.0  -  RELEASE   -
|  1> ! B3LYP def2-SVP d3 EnGrad
|  2> %pal nprocs 6 end
|  3> *xyz 0 1
|  4> N   -1.90656292214649 0.08221947220258 0.29661420031242
|  5> B   -0.57094697942467 -0.14499604768041 -0.65820802610532
|  6> N   2.12685101728831 -0.09909229919173 -0.13681177656646
|  7> B   0.81241608692186 0.03324754538001 0.33198121166639
|  8> H   2.34087289286736 -0.3152718812361 -1.10454994173543
|  9> H   -0.67639509679077 0.70846128417236 -1.53859393877604
| 10> H   -0.71985420990553 -1.27270553441754 -1.12809095248785
| 11> H   -2.78254523075778 -0.00232027032213 -0.22355089731919
| 12> H   -1.88479625608464 1.00860626766656 0.72954501645656
| 13> H   2.95313054984678 0.00578584537311 0.44050721421579
| 14> H   0.74157236456075 0.29465070801999 1.53523233110956
| 15> H   -1.92438721637516 -0.60182808996669 1.05683755922954
| 16> *
| 17>
| 18>                          ****END OF INPUT****

CARTESIAN COORDINATES (ANGSTROEM)
---------------------------------
  N     -1.906563    0.082219    0.296614
  B     -0.570947   -0.144996   -0.658208
  N      2.126851   -0.099092   -0.136812
  B      0.812416    0.033248    0.331981
  H      2.340873   -0.315272   -1.104550
  H     -0.676395    0.708461   -1.538594
  H     -0.719854   -1.272706   -1.128091
  H     -2.782545   -0.002320   -0.223551
  H     -1.884796    1.008606    0.729545
  H      2.953131    0.005786    0.440507
  H      0.741572    0.294651    1.535232
  H     -1.924387   -0.601828    1.056838

 Total Charge           Charge          ....    0
 Multiplicity           Mult            ....    1
 Number of Electrons    NEL             ....   32
 Basis Dimension        Dim             ....   96

ORBITAL ENERGIES
----------------

  NO   OCC          E(Eh)            E(eV)
   0   2.0000     -14.398077      -391.7916
   1   2.0000     -14.289802      -388.8453
   2   2.0000      -6.687726      -181.9823
   3   2.0000      -6.667089      -181.4207
   4   2.0000      -0.926747       -25.2181
   5   2.0000      -0.814859       -22.1734
   6   2.0000      -0.540118       -14.6974
   7   2.0000      -0.536727       -14.6051
   8   2.0000      -0.505157       -13.7460
   9   2.0000      -0.472371       -12.8539
  10   2.0000      -0.461053       -12.5459
  11   2.0000      -0.333557        -9.0765
  12   2.0000      -0.325646        -8.8613
  13   2.0000      -0.277929        -7.5628
  14   2.0000      -0.243977        -6.6390
  15   2.0000      -0.213739        -5.8161
  16   0.0000       0.018491         0.5032
  17   0.0000       0.046883         1.2758
  18   0.0000       0.083026         2.2593
  19   0.0000       0.090939         2.4746
  20   0.0000       0.099854         2.7172

MULLIKEN ATOMIC CHARGES
-----------------------
   0 N :    0.031589
   1 B :   -0.116904
   2 N :   -0.052556
   3 B :   -0.179697
   4 H :    0.104071
   5 H :   -0.096684
   6 H :   -0.097199
   7 H :    0.140713
   8 H :    0.141670
   9 H :    0.098645
  10 H :   -0.115133
  11 H :    0.141485
Sum of atomic charges:    0.0000000

LOEWDIN ATOMIC CHARGES
----------------------
   0 N :    0.232613
   1 B :   -0.400761
   2 N :    0.045199
   3 B :   -0.184170
   4 H :    0.075149
   5 H :   -0.042631
   6 H :   -0.042981
   7 H :    0.102292
   8 H :    0.106334
   9 H :    0.068714
  10 H :   -0.066109
  11 H :    0.106350

  Mayer bond orders larger than 0.100000
B(  0-N ,  1-B ) :   0.7421 B(  0-N ,  7-H ) :   0.9634 B(  0-N ,  8-H ) :   0.9696
B(  0-N , 11-H ) :   0.9699 B(  1-B ,  3-B ) :   0.9839 B(  1-B ,  5-H ) :   0.9483
B(  1-B ,  6-H ) :   0.9483 B(  2-N ,  3-B ) :   1.6150 B(  2-N ,  4-H ) :   0.9557
B(  2-N ,  9-H ) :   0.9594 B(  3-B , 10-H ) :   0.9413

Dispersion correction           -0.011948901
FINAL SINGLE POINT ENERGY      -163.838444713495
Dispersion correction             ... done (  0.0 sec)

DIPOLE MOMENT
-------------

Method             : SCF
Type of density    : Electron Density
Multiplicity       :   1
Irrep              :   0
Energy             :  -163.8264958122611858 Eh
Basis              : AO
                                X                 Y                 Z
Electronic contribution:      1.303758757       0.098619989       0.630916896
Nuclear contribution   :     -2.400976059       0.089187008       0.187684101
                        -----------------------------------------
Total Dipole Moment    :     -1.097217302       0.187806998       0.818600997
                        -----------------------------------------
Magnitude (a.u.)       :      1.381761509
Magnitude (Debye)      :      3.512158641

Rotational constants in cm-1:             0.832683             0.105690             0.097504
Rotational constants in MHz :         24963.195023          3168.518026          2923.084591

                             ****ORCA TERMINATED NORMALLY****
TOTAL RUN TIME: 0 days 0 hours 0 minutes 11 seconds 91 msec
