                         Program Version 6.1.0  -  RELEASE   -
|  1> ! B3LYP def2-SVP d3 EnGrad
|  2> %pal nprocs 6 end
|  3> *xyz 0 1
|  4> H   -0.65340209185298 0.84630785803681 -2.00906724193913
|  5> C   -0.54339139931807 1.35687310751905 -1.05033057039129
|  6> C   -0.18489039224571 0.70189506498685 0.08190662873706
|  7> H   -0.83916152971119 2.40559559621783 -0.97920290178737
|  8> H   -0.00532150924879 1.22049316377653 1.03019835178595
|  9> O   1.08606366072848 -0.40800897751333 -0.09372732827022
| 10> H   1.79748631697334 -0.20867640665861 0.54264465348295
| 11> O   0.36536316821512 -1.93214874826975 1.68357839945176
| 12> C   0.06838808344309 -1.52716205386191 0.59977571717058
| 13> H   -0.29219050943391 -2.0954552689491 -0.28504554595141
| 14> H   -0.79894379754939 -0.35971333528439 0.47926983771112
| 15> *
| 16>
| 17>                          ****END OF INPUT****

CARTESIAN COORDINATES (ANGSTROEM)
---------------------------------
  H     -0.653402    0.846308   -2.009067
  C     -0.543391    1.356873   -1.050331
  C     -0.184890    0.701895    0.081907
  H     -0.839162    2.405596   -0.979203
  H     -0.005322    1.220493    1.030198
  O      1.086064   -0.408009   -0.093727
  H      1.797486   -0.208676    0.542645
  O      0.365363   -1.932149    1.683578
  C      0.068388   -1.527162    0.599776
  H     -0.292191   -2.095455   -0.285046
  H     -0.798944   -0.359713    0.479270

 Total Charge           Charge          ....    0
 Multiplicity           Mult            ....    1
 Number of Electrons    NEL             ....   40
 Basis Dimension        Dim             ....  100

ORBITAL ENERGIES
----------------

  NO   OCC          E(Eh)            E(eV)
   0   2.0000     -19.189835      -522.1820
   1   2.0000     -19.143059      -520.9091
   2   2.0000     -10.322310      -280.8843
   3   2.0000     -10.265302      -279.3331
   4   2.0000     -10.159912      -276.4653
   5   2.0000      -1.072085       -29.1729
   6   2.0000      -1.018787       -27.7226
   7   2.0000      -0.757383       -20.6094
   8   2.0000      -0.655689       -17.8422
   9   2.0000      -0.586891       -15.9701
  10   2.0000      -0.519118       -14.1259
  11   2.0000      -0.490555       -13.3487
  12   2.0000      -0.465262       -12.6604
  13   2.0000      -0.450229       -12.2513
  14   2.0000      -0.427627       -11.6363
  15   2.0000      -0.400897       -10.9090
  16   2.0000      -0.371962       -10.1216
  17   2.0000      -0.334271        -9.0960
  18   2.0000      -0.304161        -8.2766
  19   2.0000      -0.189035        -5.1439
  20   0.0000      -0.050482        -1.3737
  21   0.0000       0.025661         0.6983
  22   0.0000       0.061507         1.6737
  23   0.0000       0.066784         1.8173
  24   0.0000       0.099105         2.6968

MULLIKEN ATOMIC CHARGES
-----------------------
   0 H :    0.014380
   1 C :   -0.112403
   2 C :    0.083705
   3 H :    0.026511
   4 H :    0.046382
   5 O :   -0.305671
   6 H :    0.187851
   7 O :   -0.205629
   8 C :    0.215806
   9 H :    0.046671
  10 H :    0.002397
Sum of atomic charges:   -0.0000000

LOEWDIN ATOMIC CHARGES
----------------------
   0 H :    0.021668
   1 C :   -0.199157
   2 C :    0.113485
   3 H :    0.031137
   4 H :    0.034119
   5 O :   -0.095132
   6 H :    0.088772
   7 O :   -0.158985
   8 C :    0.151668
   9 H :    0.011759
  10 H :    0.000667

  Mayer bond orders larger than 0.100000
B(  0-H ,  1-C ) :   0.9531 B(  1-C ,  2-C ) :   1.7299 B(  1-C ,  3-H ) :   0.9446
B(  1-C ,  8-C ) :   0.1281 B(  2-C ,  4-H ) :   0.9394 B(  2-C ,  5-O ) :   0.5350
B(  2-C , 10-H ) :   0.5675 B(  5-O ,  6-H ) :   0.9443 B(  5-O ,  8-C ) :   0.5697
B(  7-O ,  8-C ) :   2.0344 B(  8-C ,  9-H ) :   0.8885 B(  8-C , 10-H ) :   0.3764

Dispersion correction           -0.011715792
FINAL SINGLE POINT ENERGY      -267.860667779801
Dispersion correction             ... done (  0.1 sec)

DIPOLE MOMENT
-------------

Method             : SCF
Type of density    : Electron Density
Multiplicity       :   1
Irrep              :   0
Energy             :  -267.8489519879203158 Eh
Basis              : AO
                                X                 Y                 Z
Electronic contribution:      2.033042943      -3.637676513       2.539531605
Nuclear contribution   :     -1.828547937       3.895065194      -2.632904037
                        -----------------------------------------
Total Dipole Moment    :      0.204495007       0.257388681      -0.093372432
                        -----------------------------------------
Magnitude (a.u.)       :      0.341739012
Magnitude (Debye)      :      0.868631536

Rotational constants in cm-1:             0.483494             0.089214             0.084686
Rotational constants in MHz :         14494.790681          2674.583168          2538.828706

                             ****ORCA TERMINATED NORMALLY****
TOTAL RUN TIME: 0 days 0 hours 0 minutes 12 seconds 331 msec
