                         Program Version 6.1.0  -  RELEASE   -
|  1> ! B3LYP def2-SVP d3 EnGrad
|  2> %pal nprocs 6 end
|  3> *xyz 0 1
|  4> C   -1.61979731051497 1.05922709306218 0.64424650398693
|  5> P   -0.96526497474473 0.32116578808019 -0.93541642737644
|  6> C   0.85075539609674 0.63415346203368 -0.69420422964078
|  7> C   -1.01973086370178 -1.48013006496004 -0.48175010623904
|  8> H   -1.09072396309119 0.67913903400628 1.53521632101099
|  9> H   -1.51674684795304 2.15568571593656 0.61216949461956
| 10> H   -2.69219234746457 0.82666924624175 0.74344133909722
| 11> H   -0.53529914058706 -1.68210856394553 0.48896568374295
| 12> H   -2.0657543562431 -1.82185685734656 -0.43365495343194
| 13> H   -0.50140427740304 -2.04703214639737 -1.26903462250819
| 14> H   1.20627993842467 0.29188497157662 0.29268320842475
| 15> H   1.06171724059385 1.71100484591771 -0.79243184781844
| 16> H   1.39884488003317 0.0960668514581 -1.48169720373809
| 17> H   -1.80585616032139 -0.85832799320661 -3.64729580285744
| 18> C   -0.9160749615247 -1.03355968646343 -4.26594480370501
| 19> C   0.08520818907485 0.03409456068405 -4.3745370615906
| 20> H   -1.02901607057923 -1.76294468494288 -5.07926293008406
| 21> H   0.7191514895879 0.10142052927931 -5.26875537425571
| 22> H   -0.08758063112008 0.97418339718038 -3.8345041571207
| 23> O   0.31192077143771 -1.10312749819439 -3.54900803051595
| 24> *
| 25>
| 26>                          ****END OF INPUT****

CARTESIAN COORDINATES (ANGSTROEM)
---------------------------------
  C     -1.619797    1.059227    0.644247
  P     -0.965265    0.321166   -0.935416
  C      0.850755    0.634153   -0.694204
  C     -1.019731   -1.480130   -0.481750
  H     -1.090724    0.679139    1.535216
  H     -1.516747    2.155686    0.612169
  H     -2.692192    0.826669    0.743441
  H     -0.535299   -1.682109    0.488966
  H     -2.065754   -1.821857   -0.433655
  H     -0.501404   -2.047032   -1.269035
  H      1.206280    0.291885    0.292683
  H      1.061717    1.711005   -0.792432
  H      1.398845    0.096067   -1.481697
  H     -1.805856   -0.858328   -3.647296
  C     -0.916075   -1.033560   -4.265945
  C      0.085208    0.034095   -4.374537
  H     -1.029016   -1.762945   -5.079263
  H      0.719151    0.101421   -5.268755
  H     -0.087581    0.974183   -3.834504
  O      0.311921   -1.103127   -3.549008

 Total Charge           Charge          ....    0
 Multiplicity           Mult            ....    1
 Number of Electrons    NEL             ....   66
 Basis Dimension        Dim             ....  167

ORBITAL ENERGIES
----------------

  NO   OCC          E(Eh)            E(eV)
   0   2.0000     -77.031438     -2096.1320
   1   2.0000     -19.142424      -520.8918
   2   2.0000     -10.234296      -278.4893
   3   2.0000     -10.233989      -278.4810
   4   2.0000     -10.174570      -276.8641
   5   2.0000     -10.170501      -276.7534
   6   2.0000     -10.170089      -276.7422
   7   2.0000      -6.528512      -177.6498
   8   2.0000      -4.693946      -127.7288
   9   2.0000      -4.693890      -127.7272
  10   2.0000      -4.690897      -127.6458
  11   2.0000      -1.064839       -28.9757
  12   2.0000      -0.741867       -20.1872
  13   2.0000      -0.669848       -18.2275
  14   2.0000      -0.667254       -18.1569
  15   2.0000      -0.659100       -17.9350
  16   2.0000      -0.620534       -16.8856
  17   2.0000      -0.516889       -14.0653
  18   2.0000      -0.505652       -13.7595
  19   2.0000      -0.479687       -13.0529
  20   2.0000      -0.423069       -11.5123
  21   2.0000      -0.413135       -11.2420
  22   2.0000      -0.411379       -11.1942
  23   2.0000      -0.398338       -10.8393
  24   2.0000      -0.387338       -10.5400
  25   2.0000      -0.386917       -10.5285
  26   2.0000      -0.376959       -10.2576
  27   2.0000      -0.372478       -10.1356
  28   2.0000      -0.316037        -8.5998
  29   2.0000      -0.315409        -8.5827
  30   2.0000      -0.311645        -8.4803
  31   2.0000      -0.270626        -7.3641
  32   2.0000      -0.216875        -5.9015
  33   0.0000       0.059429         1.6171
  34   0.0000       0.061036         1.6609
  35   0.0000       0.069243         1.8842
  36   0.0000       0.084253         2.2926
  37   0.0000       0.102471         2.7884

MULLIKEN ATOMIC CHARGES
-----------------------
   0 C :   -0.150141
   1 P :    0.103024
   2 C :   -0.151362
   3 C :   -0.151173
   4 H :    0.028484
   5 H :    0.038165
   6 H :    0.038264
   7 H :    0.025533
   8 H :    0.034288
   9 H :    0.057528
  10 H :    0.025580
  11 H :    0.034614
  12 H :    0.056700
  13 H :    0.036139
  14 C :    0.114091
  15 C :    0.113216
  16 H :    0.029031
  17 H :    0.029151
  18 H :    0.035705
  19 O :   -0.346836
Sum of atomic charges:   -0.0000000

LOEWDIN ATOMIC CHARGES
----------------------
   0 C :   -0.217572
   1 P :    0.449566
   2 C :   -0.212635
   3 C :   -0.212544
   4 H :    0.016421
   5 H :    0.024534
   6 H :    0.024566
   7 H :    0.015655
   8 H :    0.022556
   9 H :    0.029219
  10 H :    0.015726
  11 H :    0.022569
  12 H :    0.029157
  13 H :    0.011000
  14 C :    0.065874
  15 C :    0.065869
  16 H :    0.013888
  17 H :    0.013950
  18 H :    0.011457
  19 O :   -0.189256

  Mayer bond orders larger than 0.100000
B(  0-C ,  1-P ) :   0.9797 B(  0-C ,  4-H ) :   0.9566 B(  0-C ,  5-H ) :   0.9700
B(  0-C ,  6-H ) :   0.9700 B(  1-P ,  2-C ) :   1.0046 B(  1-P ,  3-C ) :   1.0053
B(  2-C , 10-H ) :   0.9551 B(  2-C , 11-H ) :   0.9681 B(  2-C , 12-H ) :   0.9665
B(  3-C ,  7-H ) :   0.9551 B(  3-C ,  8-H ) :   0.9680 B(  3-C ,  9-H ) :   0.9661
B( 13-H , 14-C ) :   0.9397 B( 14-C , 15-C ) :   1.1224 B( 14-C , 16-H ) :   0.9525
B( 14-C , 19-O ) :   0.9598 B( 15-C , 17-H ) :   0.9526 B( 15-C , 18-H ) :   0.9403
B( 15-C , 19-O ) :   0.9606

Dispersion correction           -0.028729686
FINAL SINGLE POINT ENERGY      -614.382956249103
Dispersion correction             ... done (  0.0 sec)

DIPOLE MOMENT
-------------

Method             : SCF
Type of density    : Electron Density
Multiplicity       :   1
Irrep              :   0
Energy             :  -614.3542265633428769 Eh
Basis              : AO
                                X                 Y                 Z
Electronic contribution:     -0.526476142      -0.007054104      -4.125407272
Nuclear contribution   :      0.327171247       0.185175847       3.950011829
                        -----------------------------------------
Total Dipole Moment    :     -0.199304895       0.178121743      -0.175395444
                        -----------------------------------------
Magnitude (a.u.)       :      0.319708239
Magnitude (Debye)      :      0.812633762

Rotational constants in cm-1:             0.116323             0.033886             0.031879
Rotational constants in MHz :          3487.283051          1015.865314           955.702453

                             ****ORCA TERMINATED NORMALLY****
TOTAL RUN TIME: 0 days 0 hours 0 minutes 24 seconds 682 msec
