                         Program Version 6.1.0  -  RELEASE   -
|  1> ! B3LYP def2-SVP d3 EnGrad
|  2> %pal nprocs 6 end
|  3> *xyz 0 1
|  4> H   0.04813756560461 2.58902808299569 -1.32023465035538
|  5> C   -0.42330008834673 1.7415346013431 -0.81532988136278
|  6> C   0.33858969651934 0.71995115719761 -0.40853734856748
|  7> H   -1.49927514853717 1.74317788701901 -0.64965992471621
|  8> H   -0.40671064382229 -0.16460816837978 0.15540326727679
|  9> O   1.52141170795855 0.31603909269833 -0.38263379042616
| 10> H   1.47768867861771 -0.80147776163799 0.18721393548444
| 11> O   0.96787632948616 -1.67240769252526 0.71913958183888
| 12> C   -0.29197291276056 -1.41130042583084 0.75077798947014
| 13> H   -0.75956656238556 -1.12408264711051 1.71430954807693
| 14> H   -0.97287862233407 -1.93585412576937 0.04955127328084
| 15> *
| 16>
| 17>                          ****END OF INPUT****

CARTESIAN COORDINATES (ANGSTROEM)
---------------------------------
  H      0.048138    2.589028   -1.320235
  C     -0.423300    1.741535   -0.815330
  C      0.338590    0.719951   -0.408537
  H     -1.499275    1.743178   -0.649660
  H     -0.406711   -0.164608    0.155403
  O      1.521412    0.316039   -0.382634
  H      1.477689   -0.801478    0.187214
  O      0.967876   -1.672408    0.719140
  C     -0.291973   -1.411300    0.750778
  H     -0.759567   -1.124083    1.714310
  H     -0.972879   -1.935854    0.049551

 Total Charge           Charge          ....    0
 Multiplicity           Mult            ....    1
 Number of Electrons    NEL             ....   40
 Basis Dimension        Dim             ....  100

ORBITAL ENERGIES
----------------

  NO   OCC          E(Eh)            E(eV)
   0   2.0000     -19.164100      -521.4817
   1   2.0000     -19.152234      -521.1588
   2   2.0000     -10.300731      -280.2972
   3   2.0000     -10.281487      -279.7735
   4   2.0000     -10.181379      -277.0494
   5   2.0000      -1.080815       -29.4105
   6   2.0000      -1.033789       -28.1308
   7   2.0000      -0.752680       -20.4815
   8   2.0000      -0.681672       -18.5492
   9   2.0000      -0.589533       -16.0420
  10   2.0000      -0.551341       -15.0028
  11   2.0000      -0.499926       -13.6037
  12   2.0000      -0.476450       -12.9649
  13   2.0000      -0.460441       -12.5292
  14   2.0000      -0.431435       -11.7399
  15   2.0000      -0.415318       -11.3014
  16   2.0000      -0.359389        -9.7795
  17   2.0000      -0.340064        -9.2536
  18   2.0000      -0.294741        -8.0203
  19   2.0000      -0.231509        -6.2997
  20   0.0000      -0.078251        -2.1293
  21   0.0000       0.039151         1.0654
  22   0.0000       0.057944         1.5767
  23   0.0000       0.092476         2.5164
  24   0.0000       0.118159         3.2153

MULLIKEN ATOMIC CHARGES
-----------------------
   0 H :    0.045864
   1 C :   -0.158480
   2 C :    0.140694
   3 H :    0.029691
   4 H :   -0.068345
   5 O :   -0.236454
   6 H :    0.243964
   7 O :   -0.302015
   8 C :    0.216509
   9 H :    0.044729
  10 H :    0.043842
Sum of atomic charges:   -0.0000000

LOEWDIN ATOMIC CHARGES
----------------------
   0 H :    0.041602
   1 C :   -0.183195
   2 C :    0.068407
   3 H :    0.031935
   4 H :    0.031283
   5 O :   -0.091202
   6 H :    0.049648
   7 O :   -0.122151
   8 C :    0.139551
   9 H :    0.017487
  10 H :    0.016634

  Mayer bond orders larger than 0.100000
B(  0-H ,  1-C ) :   0.9412 B(  1-C ,  2-C ) :   1.8474 B(  1-C ,  3-H ) :   0.9395
B(  1-C ,  5-O ) :   0.1472 B(  2-C ,  4-H ) :   0.4999 B(  2-C ,  5-O ) :   1.5406
B(  4-H ,  8-C ) :   0.4713 B(  5-O ,  6-H ) :   0.4379 B(  5-O ,  8-C ) :   0.1158
B(  6-H ,  7-O ) :   0.5944 B(  7-O ,  8-C ) :   1.4240 B(  8-C ,  9-H ) :   0.9234
B(  8-C , 10-H ) :   0.9238

Dispersion correction           -0.011479034
FINAL SINGLE POINT ENERGY      -267.937555111276
Dispersion correction             ... done (  0.0 sec)

DIPOLE MOMENT
-------------

Method             : SCF
Type of density    : Electron Density
Multiplicity       :   1
Irrep              :   0
Energy             :  -267.9260760776030565 Eh
Basis              : AO
                                X                 Y                 Z
Electronic contribution:      3.472176582      -1.098197892       0.068694986
Nuclear contribution   :     -4.479095460       0.937725181       0.145402261
                        -----------------------------------------
Total Dipole Moment    :     -1.006918877      -0.160472711       0.214097247
                        -----------------------------------------
Magnitude (a.u.)       :      1.041861194
Magnitude (Debye)      :      2.648200699

Rotational constants in cm-1:             0.348834             0.104491             0.081774
Rotational constants in MHz :         10457.777848          3132.559122          2451.536940

                             ****ORCA TERMINATED NORMALLY****
TOTAL RUN TIME: 0 days 0 hours 0 minutes 10 seconds 751 msec
