                         Program Version 6.1.0  -  RELEASE   -
|  1> ! B3LYP def2-SVP d3 EnGrad
|  2> %pal nprocs 6 end
|  3> *xyz 0 1
|  4> H   -0.89129373478522 0.18429892581495 1.0590773846509
|  5> C   -1.74831523104626 0.194870731148 0.35869201159228
|  6> C   -1.45924748630547 1.00521681590413 -0.87363797993077
|  7> C   -1.58606189770574 0.21457798166085 -1.96498694994946
|  8> C   -1.95348151873574 -1.14242551346498 -1.53709233089128
|  9> C   -2.05204300775591 -1.17314718484759 -0.18653509338001
| 10> H   -2.59937486632669 0.60817154942345 0.93453479849996
| 11> C   1.60850617518187 -0.86062264592998 1.54825702156993
| 12> H   -1.1837774136961 2.05986559735942 -0.85804258618594
| 13> H   -1.43643166219305 0.51749631086712 -3.00324095788694
| 14> H   -2.1185934903712 -1.98229444179388 -2.21521235381609
| 15> C   1.63679925151692 -0.77999818521823 0.04735033540609
| 16> H   -2.31076787339368 -2.03489053732597 0.43018124174966
| 17> H   2.43823054335304 -1.40916098705573 -0.38619069813023
| 18> H   1.46004928397293 -1.78394171363875 2.10997265349411
| 19> C   1.79363908375903 0.37942995242934 2.06089797220865
| 20> C   1.95445387005896 1.33964900336139 0.9600937191735
| 21> H   1.82059845154235 0.64096366722873 3.12081786545188
| 22> H   2.11305561420092 2.41186448965061 1.09130140176121
| 23> C   1.86274891253606 0.68173518630873 -0.21939778010227
| 24> H   0.69523819371688 -1.14222864005625 -0.40792670326074
| 25> H   1.92636780267611 1.11581663817466 -1.21732796192437
| 26> *
| 27>
| 28>                          ****END OF INPUT****

CARTESIAN COORDINATES (ANGSTROEM)
---------------------------------
  H     -0.891294    0.184299    1.059077
  C     -1.748315    0.194871    0.358692
  C     -1.459247    1.005217   -0.873638
  C     -1.586062    0.214578   -1.964987
  C     -1.953482   -1.142426   -1.537092
  C     -2.052043   -1.173147   -0.186535
  H     -2.599375    0.608172    0.934535
  C      1.608506   -0.860623    1.548257
  H     -1.183777    2.059866   -0.858043
  H     -1.436432    0.517496   -3.003241
  H     -2.118593   -1.982294   -2.215212
  C      1.636799   -0.779998    0.047350
  H     -2.310768   -2.034891    0.430181
  H      2.438231   -1.409161   -0.386191
  H      1.460049   -1.783942    2.109973
  C      1.793639    0.379430    2.060898
  C      1.954454    1.339649    0.960094
  H      1.820598    0.640964    3.120818
  H      2.113056    2.411864    1.091301
  C      1.862749    0.681735   -0.219398
  H      0.695238   -1.142229   -0.407927
  H      1.926368    1.115817   -1.217328

 Total Charge           Charge          ....    0
 Multiplicity           Mult            ....    1
 Number of Electrons    NEL             ....   72
 Basis Dimension        Dim             ....  200

ORBITAL ENERGIES
----------------

  NO   OCC          E(Eh)            E(eV)
   0   2.0000     -10.184682      -277.1393
   1   2.0000     -10.184618      -277.1376
   2   2.0000     -10.180160      -277.0162
   3   2.0000     -10.180136      -277.0156
   4   2.0000     -10.178446      -276.9696
   5   2.0000     -10.178419      -276.9689
   6   2.0000     -10.177977      -276.9568
   7   2.0000     -10.177900      -276.9547
   8   2.0000     -10.177348      -276.9397
   9   2.0000     -10.177295      -276.9383
  10   2.0000      -0.844659       -22.9843
  11   2.0000      -0.841156       -22.8890
  12   2.0000      -0.691204       -18.8086
  13   2.0000      -0.689405       -18.7597
  14   2.0000      -0.689242       -18.7552
  15   2.0000      -0.688204       -18.7270
  16   2.0000      -0.539653       -14.6847
  17   2.0000      -0.538855       -14.6630
  18   2.0000      -0.519354       -14.1323
  19   2.0000      -0.518730       -14.1154
  20   2.0000      -0.506594       -13.7851
  21   2.0000      -0.505101       -13.7445
  22   2.0000      -0.443072       -12.0566
  23   2.0000      -0.411361       -11.1937
  24   2.0000      -0.393236       -10.7005
  25   2.0000      -0.392299       -10.6750
  26   2.0000      -0.370527       -10.0825
  27   2.0000      -0.370326       -10.0771
  28   2.0000      -0.355782        -9.6813
  29   2.0000      -0.355591        -9.6761
  30   2.0000      -0.355306        -9.6684
  31   2.0000      -0.353897        -9.6300
  32   2.0000      -0.304845        -8.2953
  33   2.0000      -0.289314        -7.8726
  34   2.0000      -0.224588        -6.1113
  35   2.0000      -0.209495        -5.7007
  36   0.0000      -0.020473        -0.5571
  37   0.0000      -0.014090        -0.3834
  38   0.0000       0.068730         1.8702
  39   0.0000       0.075376         2.0511
  40   0.0000       0.080282         2.1846

MULLIKEN ATOMIC CHARGES
-----------------------
   0 H :    0.053902
   1 C :    0.099076
   2 C :   -0.055549
   3 C :   -0.003307
   4 C :    0.006165
   5 C :   -0.084384
   6 H :    0.035832
   7 C :   -0.084181
   8 H :   -0.007885
   9 H :   -0.018767
  10 H :   -0.017044
  11 C :    0.099072
  12 H :   -0.008219
  13 H :    0.035806
  14 H :   -0.008160
  15 C :    0.006016
  16 C :   -0.003009
  17 H :   -0.017061
  18 H :   -0.018753
  19 C :   -0.055799
  20 H :    0.054194
  21 H :   -0.007944
Sum of atomic charges:    0.0000000

LOEWDIN ATOMIC CHARGES
----------------------
   0 H :    0.055980
   1 C :   -0.033098
   2 C :   -0.025406
   3 C :   -0.047669
   4 C :   -0.041838
   5 C :   -0.038720
   6 H :    0.051310
   7 C :   -0.038735
   8 H :    0.019852
   9 H :    0.019730
  10 H :    0.020238
  11 C :   -0.033096
  12 H :    0.019470
  13 H :    0.051164
  14 H :    0.019516
  15 C :   -0.041814
  16 C :   -0.047627
  17 H :    0.020242
  18 H :    0.019736
  19 C :   -0.025307
  20 H :    0.056219
  21 H :    0.019850

  Mayer bond orders larger than 0.100000
B(  0-H ,  1-C ) :   0.8900 B(  1-C ,  2-C ) :   1.0624 B(  1-C ,  5-C ) :   1.0532
B(  1-C ,  6-H ) :   0.8978 B(  2-C ,  3-C ) :   1.7562 B(  2-C ,  8-H ) :   0.9871
B(  3-C ,  4-C ) :   1.0804 B(  3-C ,  9-H ) :   0.9982 B(  4-C ,  5-C ) :   1.7440
B(  4-C , 10-H ) :   0.9972 B(  5-C , 12-H ) :   0.9899 B(  7-C , 11-C ) :   1.0531
B(  7-C , 14-H ) :   0.9899 B(  7-C , 15-C ) :   1.7441 B( 11-C , 13-H ) :   0.8981
B( 11-C , 19-C ) :   1.0627 B( 11-C , 20-H ) :   0.8897 B( 15-C , 16-C ) :   1.0803
B( 15-C , 17-H ) :   0.9971 B( 16-C , 18-H ) :   0.9983 B( 16-C , 19-C ) :   1.7561
B( 19-C , 21-H ) :   0.9870

Dispersion correction           -0.037834206
FINAL SINGLE POINT ENERGY      -387.701515571389
Dispersion correction             ... done (  0.0 sec)

DIPOLE MOMENT
-------------

Method             : SCF
Type of density    : Electron Density
Multiplicity       :   1
Irrep              :   0
Energy             :  -387.6636813658525398 Eh
Basis              : AO
                                X                 Y                 Z
Electronic contribution:      0.114600042       0.479432827      -0.316218034
Nuclear contribution   :     -0.132195211      -0.549914409       0.362734275
                        -----------------------------------------
Total Dipole Moment    :     -0.017595169      -0.070481582       0.046516241
                        -----------------------------------------
Magnitude (a.u.)       :      0.086261255
Magnitude (Debye)      :      0.219258685

Rotational constants in cm-1:             0.081609             0.026793             0.025477
Rotational constants in MHz :          2446.561822           803.244666           763.794659

                             ****ORCA TERMINATED NORMALLY****
TOTAL RUN TIME: 0 days 0 hours 0 minutes 36 seconds 431 msec
