                         Program Version 6.1.0  -  RELEASE   -
|  1> ! B3LYP def2-SVP d3 EnGrad
|  2> %pal nprocs 6 end
|  3> *xyz 0 1
|  4> C   -1.64454500552122 -0.86190842227087 -0.15604565584526
|  5> C   1.59974614002644 -0.85160587800309 0.1337234271806
|  6> C   -1.31771918159751 0.39737334636591 0.17996426071692
|  7> C   1.19544497358255 0.57230673609004 -0.10208394302217
|  8> C   -0.04879083538191 1.09065541521619 -0.06667009631764
|  9> H   0.84695682694112 -1.40195308376312 0.71827374528804
| 10> H   -2.63169392527224 -1.26696222766901 0.08336752023127
| 11> H   2.56497593756175 -0.90046803574654 0.66385226878178
| 12> H   -0.96203141423378 -1.51709018096946 -0.7023536657945
| 13> H   1.73673550561569 -1.39580943440263 -0.8189426234002
| 14> H   -2.08773853242136 1.00803507999003 0.66984221281131
| 15> H   2.01448820860733 1.27317641159282 -0.30419049217809
| 16> H   -0.13708569790686 2.17564827356974 -0.20032295845208
| 17> *
| 18>
| 19>                          ****END OF INPUT****

CARTESIAN COORDINATES (ANGSTROEM)
---------------------------------
  C     -1.644545   -0.861908   -0.156046
  C      1.599746   -0.851606    0.133723
  C     -1.317719    0.397373    0.179964
  C      1.195445    0.572307   -0.102084
  C     -0.048791    1.090655   -0.066670
  H      0.846957   -1.401953    0.718274
  H     -2.631694   -1.266962    0.083368
  H      2.564976   -0.900468    0.663852
  H     -0.962031   -1.517090   -0.702354
  H      1.736736   -1.395809   -0.818943
  H     -2.087739    1.008035    0.669842
  H      2.014488    1.273176   -0.304190
  H     -0.137086    2.175648   -0.200323

 Total Charge           Charge          ....    0
 Multiplicity           Mult            ....    1
 Number of Electrons    NEL             ....   38
 Basis Dimension        Dim             ....  110

ORBITAL ENERGIES
----------------

  NO   OCC          E(Eh)            E(eV)
   0   2.0000     -10.189271      -277.2641
   1   2.0000     -10.188181      -277.2345
   2   2.0000     -10.182226      -277.0724
   3   2.0000     -10.182160      -277.0706
   4   2.0000     -10.181735      -277.0591
   5   2.0000      -0.797091       -21.6899
   6   2.0000      -0.738756       -20.1026
   7   2.0000      -0.676420       -18.4063
   8   2.0000      -0.587306       -15.9814
   9   2.0000      -0.511344       -13.9144
  10   2.0000      -0.479989       -13.0612
  11   2.0000      -0.435134       -11.8406
  12   2.0000      -0.419682       -11.4201
  13   2.0000      -0.407496       -11.0885
  14   2.0000      -0.380853       -10.3635
  15   2.0000      -0.358593        -9.7578
  16   2.0000      -0.331280        -9.0146
  17   2.0000      -0.299172        -8.1409
  18   2.0000      -0.227796        -6.1986
  19   0.0000      -0.024564        -0.6684
  20   0.0000       0.060705         1.6519
  21   0.0000       0.074357         2.0234
  22   0.0000       0.082988         2.2582
  23   0.0000       0.102508         2.7894

MULLIKEN ATOMIC CHARGES
-----------------------
   0 C :   -0.032478
   1 C :    0.059911
   2 C :   -0.025527
   3 C :   -0.100924
   4 C :    0.003612
   5 H :    0.025334
   6 H :    0.020269
   7 H :    0.012440
   8 H :    0.018722
   9 H :    0.030080
  10 H :   -0.000909
  11 H :   -0.002583
  12 H :   -0.007946
Sum of atomic charges:    0.0000000

LOEWDIN ATOMIC CHARGES
----------------------
   0 C :   -0.051273
   1 C :   -0.060726
   2 C :   -0.031577
   3 C :   -0.022464
   4 C :   -0.054172
   5 H :    0.031215
   6 H :    0.023801
   7 H :    0.029590
   8 H :    0.021151
   9 H :    0.035425
  10 H :    0.027630
  11 H :    0.024198
  12 H :    0.027200

  Mayer bond orders larger than 0.100000
B(  0-C ,  2-C ) :   1.9415 B(  0-C ,  6-H ) :   0.9465 B(  0-C ,  8-H ) :   0.9558
B(  1-C ,  3-C ) :   1.0888 B(  1-C ,  5-H ) :   0.9514 B(  1-C ,  7-H ) :   0.9523
B(  1-C ,  9-H ) :   0.9471 B(  2-C ,  4-C ) :   1.0847 B(  2-C , 10-H ) :   0.9512
B(  3-C ,  4-C ) :   1.9002 B(  3-C , 11-H ) :   0.9483 B(  4-C , 12-H ) :   0.9450

Dispersion correction           -0.016421921
FINAL SINGLE POINT ENERGY      -195.042399616770
Dispersion correction             ... done (  0.0 sec)

DIPOLE MOMENT
-------------

Method             : SCF
Type of density    : Electron Density
Multiplicity       :   1
Irrep              :   0
Energy             :  -195.0259776955761026 Eh
Basis              : AO
                                X                 Y                 Z
Electronic contribution:     -1.284151945       2.082379372      -0.101160859
Nuclear contribution   :      1.397813848      -2.134233183       0.105295940
                        -----------------------------------------
Total Dipole Moment    :      0.113661903      -0.051853811       0.004135081
                        -----------------------------------------
Magnitude (a.u.)       :      0.124999779
Magnitude (Debye)      :      0.317724189

Rotational constants in cm-1:             0.292655             0.127825             0.092685
Rotational constants in MHz :          8773.562887          3832.099474          2778.617799

                             ****ORCA TERMINATED NORMALLY****
TOTAL RUN TIME: 0 days 0 hours 0 minutes 13 seconds 932 msec
