                         Program Version 6.1.0  -  RELEASE   -
|  1> ! B3LYP def2-SVP d3 EnGrad
|  2> %pal nprocs 6 end
|  3> *xyz 0 1
|  4> C   1.30047989041982 -0.94453233815154 -0.01071605313797
|  5> C   -1.31937243705972 0.48162999029155 -0.40678423754219
|  6> H   -1.54384570664642 0.70000227914721 -1.45839518969227
|  7> C   -1.43235996458703 -0.85718148441463 0.03710711693923
|  8> C   -0.48967363244856 1.35579772941373 0.28374816014839
|  9> C   1.41275155552464 0.45859236749443 -0.03944633037234
| 10> H   -0.143203179426 -1.16968404530371 -0.05406815816555
| 11> H   -1.52480984082682 -1.02647072202605 1.11895761834664
| 12> H   -2.01296181869137 -1.5671459997341 -0.56331619913007
| 13> H   -0.42084846465176 1.25962071040598 1.37191898333089
| 14> H   -0.32069775574895 2.36836517614917 -0.09445008465202
| 15> H   1.82655710542133 0.976991464456 0.82876487490015
| 16> H   1.61974180319342 0.95071220807328 -0.99316483962775
| 17> H   1.48983096394197 -1.50821339096176 -0.93097633687215
| 18> H   1.55841148158546 -1.47848394483957 0.91082067552698
| 19> *
| 20>
| 21>                          ****END OF INPUT****

CARTESIAN COORDINATES (ANGSTROEM)
---------------------------------
  C      1.300480   -0.944532   -0.010716
  C     -1.319372    0.481630   -0.406784
  H     -1.543846    0.700002   -1.458395
  C     -1.432360   -0.857181    0.037107
  C     -0.489674    1.355798    0.283748
  C      1.412752    0.458592   -0.039446
  H     -0.143203   -1.169684   -0.054068
  H     -1.524810   -1.026471    1.118958
  H     -2.012962   -1.567146   -0.563316
  H     -0.420848    1.259621    1.371919
  H     -0.320698    2.368365   -0.094450
  H      1.826557    0.976991    0.828765
  H      1.619742    0.950712   -0.993165
  H      1.489831   -1.508213   -0.930976
  H      1.558411   -1.478484    0.910821

 Total Charge           Charge          ....    0
 Multiplicity           Mult            ....    1
 Number of Electrons    NEL             ....   40
 Basis Dimension        Dim             ....  120

ORBITAL ENERGIES
----------------

  NO   OCC          E(Eh)            E(eV)
   0   2.0000     -10.189436      -277.2687
   1   2.0000     -10.185468      -277.1607
   2   2.0000     -10.178838      -276.9803
   3   2.0000     -10.178416      -276.9688
   4   2.0000     -10.171982      -276.7937
   5   2.0000      -0.788964       -21.4688
   6   2.0000      -0.730098       -19.8670
   7   2.0000      -0.666967       -18.1491
   8   2.0000      -0.570034       -15.5114
   9   2.0000      -0.543255       -14.7827
  10   2.0000      -0.467111       -12.7107
  11   2.0000      -0.451653       -12.2901
  12   2.0000      -0.416093       -11.3225
  13   2.0000      -0.405758       -11.0412
  14   2.0000      -0.399243       -10.8640
  15   2.0000      -0.365468        -9.9449
  16   2.0000      -0.353107        -9.6085
  17   2.0000      -0.341732        -9.2990
  18   2.0000      -0.260804        -7.0968
  19   2.0000      -0.217807        -5.9268
  20   0.0000      -0.006493        -0.1767
  21   0.0000       0.045480         1.2376
  22   0.0000       0.069370         1.8876
  23   0.0000       0.086425         2.3517
  24   0.0000       0.097235         2.6459

MULLIKEN ATOMIC CHARGES
-----------------------
   0 C :   -0.036852
   1 C :   -0.065591
   2 H :   -0.000437
   3 C :    0.035171
   4 C :   -0.028420
   5 C :   -0.045014
   6 H :   -0.030467
   7 H :    0.020403
   8 H :    0.017674
   9 H :    0.020875
  10 H :    0.016624
  11 H :    0.026722
  12 H :    0.024396
  13 H :    0.022392
  14 H :    0.022523
Sum of atomic charges:   -0.0000000

LOEWDIN ATOMIC CHARGES
----------------------
   0 C :   -0.102216
   1 C :   -0.049403
   2 H :    0.021145
   3 C :   -0.064879
   4 C :   -0.034960
   5 C :   -0.029717
   6 H :    0.066239
   7 H :    0.028835
   8 H :    0.024473
   9 H :    0.022683
  10 H :    0.022159
  11 H :    0.026119
  12 H :    0.021969
  13 H :    0.025567
  14 H :    0.021985

  Mayer bond orders larger than 0.100000
B(  0-C ,  1-C ) :   0.1226 B(  0-C ,  5-C ) :   1.5267 B(  0-C ,  6-H ) :   0.4536
B(  0-C , 13-H ) :   0.9396 B(  0-C , 14-H ) :   0.9537 B(  1-C ,  2-H ) :   0.9631
B(  1-C ,  3-C ) :   1.3812 B(  1-C ,  4-C ) :   1.5352 B(  3-C ,  6-H ) :   0.5495
B(  3-C ,  7-H ) :   0.9466 B(  3-C ,  8-H ) :   0.9438 B(  4-C ,  5-C ) :   0.5252
B(  4-C ,  9-H ) :   0.9509 B(  4-C , 10-H ) :   0.9490 B(  5-C , 11-H ) :   0.9530
B(  5-C , 12-H ) :   0.9555

Dispersion correction           -0.020285648
FINAL SINGLE POINT ENERGY      -196.177438897890
Dispersion correction             ... done (  0.0 sec)

DIPOLE MOMENT
-------------

Method             : SCF
Type of density    : Electron Density
Multiplicity       :   1
Irrep              :   0
Energy             :  -196.1571532501187392 Eh
Basis              : AO
                                X                 Y                 Z
Electronic contribution:     -1.186343694       1.202940656      -0.338785128
Nuclear contribution   :      1.272909825      -1.191286584       0.327982475
                        -----------------------------------------
Total Dipole Moment    :      0.086566130       0.011654073      -0.010802653
                        -----------------------------------------
Magnitude (a.u.)       :      0.088012554
Magnitude (Debye)      :      0.223710134

Rotational constants in cm-1:             0.220083             0.135182             0.094764
Rotational constants in MHz :          6597.912813          4052.664781          2840.951887

                             ****ORCA TERMINATED NORMALLY****
TOTAL RUN TIME: 0 days 0 hours 0 minutes 16 seconds 799 msec
