                         Program Version 6.1.0  -  RELEASE   -
|  1> ! B3LYP def2-SVP d3 EnGrad
|  2> %pal nprocs 6 end
|  3> *xyz 0 1
|  4> C   -0.92694646961547 -0.03024865225057 -4.04061183e-06
|  5> C   0.12376048259271 -0.94610646807496 4.01998235e-06
|  6> O   1.73856038010301 0.35323318459638 7.13353213e-06
|  7> N   1.13092200111328 1.41984968445806 6.49654e-09
|  8> N   0.00054475706435 1.74439748980376 -7.27769764e-06
|  9> H   -1.48090651838009 0.15553667543167 0.92344439781365
| 10> H   -1.48089875170957 0.1555290369448 -0.92345868407952
| 11> H   0.44747854461981 -1.42609171246583 0.92552680721734
| 12> H   0.44748557421197 -1.42609923844332 -0.92551236265302
| 13> *
| 14>
| 15>                          ****END OF INPUT****

CARTESIAN COORDINATES (ANGSTROEM)
---------------------------------
  C     -0.926946   -0.030249   -0.000004
  C      0.123760   -0.946106    0.000004
  O      1.738560    0.353233    0.000007
  N      1.130922    1.419850    0.000000
  N      0.000545    1.744397   -0.000007
  H     -1.480907    0.155537    0.923444
  H     -1.480899    0.155529   -0.923459
  H      0.447479   -1.426092    0.925527
  H      0.447486   -1.426099   -0.925512

 Total Charge           Charge          ....    0
 Multiplicity           Mult            ....    1
 Number of Electrons    NEL             ....   38
 Basis Dimension        Dim             ....   90

ORBITAL ENERGIES
----------------

  NO   OCC          E(Eh)            E(eV)
   0   2.0000     -19.203401      -522.5511
   1   2.0000     -14.475258      -393.8918
   2   2.0000     -14.393786      -391.6748
   3   2.0000     -10.228890      -278.3423
   4   2.0000     -10.216369      -278.0015
   5   2.0000      -1.178203       -32.0605
   6   2.0000      -0.990782       -26.9606
   7   2.0000      -0.776400       -21.1269
   8   2.0000      -0.610538       -16.6136
   9   2.0000      -0.575588       -15.6625
  10   2.0000      -0.514847       -14.0097
  11   2.0000      -0.510077       -13.8799
  12   2.0000      -0.472972       -12.8702
  13   2.0000      -0.454140       -12.3578
  14   2.0000      -0.427504       -11.6330
  15   2.0000      -0.382783       -10.4160
  16   2.0000      -0.310633        -8.4527
  17   2.0000      -0.302689        -8.2366
  18   2.0000      -0.275686        -7.5018
  19   0.0000      -0.061351        -1.6694
  20   0.0000      -0.007723        -0.2101
  21   0.0000       0.034946         0.9509
  22   0.0000       0.068026         1.8511
  23   0.0000       0.091751         2.4967

MULLIKEN ATOMIC CHARGES
-----------------------
   0 C :   -0.036425
   1 C :    0.014704
   2 O :   -0.232872
   3 N :    0.202528
   4 N :   -0.142798
   5 H :    0.048180
   6 H :    0.048180
   7 H :    0.049252
   8 H :    0.049252
Sum of atomic charges:    0.0000000

LOEWDIN ATOMIC CHARGES
----------------------
   0 C :   -0.040990
   1 C :    0.016285
   2 O :   -0.138590
   3 N :    0.122950
   4 N :   -0.088116
   5 H :    0.032917
   6 H :    0.032917
   7 H :    0.031313
   8 H :    0.031313

  Mayer bond orders larger than 0.100000
B(  0-C ,  1-C ) :   1.6099 B(  0-C ,  4-N ) :   0.4861 B(  0-C ,  5-H ) :   0.9512
B(  0-C ,  6-H ) :   0.9512 B(  1-C ,  2-O ) :   0.3650 B(  1-C ,  3-N ) :   0.1132
B(  1-C ,  7-H ) :   0.9578 B(  1-C ,  8-H ) :   0.9578 B(  2-O ,  3-N ) :   1.3655
B(  2-O ,  4-N ) :   0.3421 B(  3-N ,  4-N ) :   1.9689

Dispersion correction           -0.011196570
FINAL SINGLE POINT ENERGY      -262.882067212105
Dispersion correction             ... done (  0.0 sec)

DIPOLE MOMENT
-------------

Method             : SCF
Type of density    : Electron Density
Multiplicity       :   1
Irrep              :   0
Energy             :  -262.8708706421040802 Eh
Basis              : AO
                                X                 Y                 Z
Electronic contribution:      3.176032500       3.617468707       0.000001007
Nuclear contribution   :     -3.581394408      -4.232332873      -0.000000425
                        -----------------------------------------
Total Dipole Moment    :     -0.405361908      -0.614864166       0.000000581
                        -----------------------------------------
Magnitude (a.u.)       :      0.736461960
Magnitude (Debye)      :      1.871937538

Rotational constants in cm-1:             0.288363             0.196059             0.122556
Rotational constants in MHz :          8644.901938          5877.688406          3674.139876

                             ****ORCA TERMINATED NORMALLY****
TOTAL RUN TIME: 0 days 0 hours 0 minutes 10 seconds 534 msec
