                         Program Version 6.1.0  -  RELEASE   -
|  1> ! B3LYP def2-SVP d3 EnGrad
|  2> %pal nprocs 6 end
|  3> *xyz 0 1
|  4> C   -1.22342402262875 -0.17674290191516 -0.03947616842585
|  5> H   -1.74580386988652 -0.1166011072178 -1.01078443151315
|  6> H   -1.85744668613909 0.36014894749802 0.6882918195145
|  7> C   0.14302260259427 0.43572073437442 -0.12240322613473
|  8> C   1.29233825517257 -0.19833464547813 0.12576859827938
|  9> H   0.17823622226069 1.49399403359755 -0.4140172567602
| 10> H   2.25679829921257 0.31131736020897 0.04542623612554
| 11> H   -1.17781118301422 -1.23552090663911 0.26013264467636
| 12> H   1.31172538242848 -1.25356651442877 0.41992278423814
| 13> *
| 14>
| 15>                          ****END OF INPUT****

CARTESIAN COORDINATES (ANGSTROEM)
---------------------------------
  C     -1.223424   -0.176743   -0.039476
  H     -1.745804   -0.116601   -1.010784
  H     -1.857447    0.360149    0.688292
  C      0.143023    0.435721   -0.122403
  C      1.292338   -0.198335    0.125769
  H      0.178236    1.493994   -0.414017
  H      2.256798    0.311317    0.045426
  H     -1.177811   -1.235521    0.260133
  H      1.311725   -1.253567    0.419923

 Total Charge           Charge          ....    0
 Multiplicity           Mult            ....    1
 Number of Electrons    NEL             ....   24
 Basis Dimension        Dim             ....   72

ORBITAL ENERGIES
----------------

  NO   OCC          E(Eh)            E(eV)
   0   2.0000     -10.186980      -277.2018
   1   2.0000     -10.183426      -277.1051
   2   2.0000     -10.175185      -276.8809
   3   2.0000      -0.772938       -21.0327
   4   2.0000      -0.672824       -18.3085
   5   2.0000      -0.542743       -14.7688
   6   2.0000      -0.460779       -12.5384
   7   2.0000      -0.417388       -11.3577
   8   2.0000      -0.407776       -11.0962
   9   2.0000      -0.368246       -10.0205
  10   2.0000      -0.342165        -9.3108
  11   2.0000      -0.254494        -6.9251
  12   0.0000       0.019020         0.5176
  13   0.0000       0.074177         2.0185
  14   0.0000       0.097606         2.6560
  15   0.0000       0.109451         2.9783
  16   0.0000       0.139063         3.7841

MULLIKEN ATOMIC CHARGES
-----------------------
   0 C :    0.055140
   1 H :    0.023047
   2 H :    0.022960
   3 C :   -0.108572
   4 C :   -0.033397
   5 H :    0.002701
   6 H :    0.018081
   7 H :    0.009934
   8 H :    0.010106
Sum of atomic charges:   -0.0000000

LOEWDIN ATOMIC CHARGES
----------------------
   0 C :   -0.056391
   1 H :    0.032760
   2 H :    0.032680
   3 C :   -0.030557
   4 C :   -0.069845
   5 H :    0.022992
   6 H :    0.022303
   7 H :    0.027158
   8 H :    0.018900

  Mayer bond orders larger than 0.100000
B(  0-C ,  1-H ) :   0.9548 B(  0-C ,  2-H ) :   0.9549 B(  0-C ,  3-C ) :   1.0769
B(  0-C ,  7-H ) :   0.9665 B(  3-C ,  4-C ) :   2.0297 B(  3-C ,  5-H ) :   0.9603
B(  4-C ,  6-H ) :   0.9524 B(  4-C ,  8-H ) :   0.9526

Dispersion correction           -0.008019787
FINAL SINGLE POINT ENERGY      -117.743883513009
Dispersion correction             ... done (  0.1 sec)

DIPOLE MOMENT
-------------

Method             : SCF
Type of density    : Electron Density
Multiplicity       :   1
Irrep              :   0
Energy             :  -117.7358637259914076 Eh
Basis              : AO
                                X                 Y                 Z
Electronic contribution:      1.015277809       0.480884981      -0.067719741
Nuclear contribution   :     -1.171409334      -0.451086577       0.049159039
                        -----------------------------------------
Total Dipole Moment    :     -0.156131525       0.029798403      -0.018560702
                        -----------------------------------------
Magnitude (a.u.)       :      0.160029677
Magnitude (Debye)      :      0.406763113

Rotational constants in cm-1:             1.552363             0.307353             0.269483
Rotational constants in MHz :         46538.673242          9214.223541          8078.901096

                             ****ORCA TERMINATED NORMALLY****
TOTAL RUN TIME: 0 days 0 hours 0 minutes 7 seconds 482 msec
