                         Program Version 6.1.0  -  RELEASE   -
|  1> ! B3LYP def2-SVP d3 EnGrad
|  2> %pal nprocs 6 end
|  3> *xyz 0 1
|  4> C   -1.33849550934974 1.1722957914517 -0.42261289944651
|  5> P   -0.43580434325299 -0.18886603538601 -1.40014299357584
|  6> C   1.26425962901889 0.34765456703849 -0.9591666242798
|  7> C   -1.05283237658491 -1.59399731707468 -0.39114085011402
|  8> H   -1.07258925864447 1.15644819885801 0.64704942367367
|  9> H   -1.08340361486558 2.16725846485425 -0.82511853349515
| 10> H   -2.43096853093822 1.04510113181562 -0.50687806621311
| 11> H   -1.23484456690216 -1.30815696774067 0.65496015824317
| 12> H   -2.00122206550965 -1.93256210788357 -0.83718528486094
| 13> H   -0.33420944580216 -2.41958660428934 -0.4656662248627
| 14> H   1.3063152437508 0.82408634880101 0.03088358277144
| 15> H   1.59070547197616 1.07691375722454 -1.71730728803728
| 16> H   1.93269436686909 -0.52014850560643 -1.01836204634228
| 17> H   -1.06751849963648 -1.62148505703198 -4.23231647463385
| 18> C   -0.40269740384452 -0.87975409160236 -3.74235801735573
| 19> C   -1.18538946519581 0.24649011038339 -3.05646433724972
| 20> H   0.28694893455944 -0.49892906249218 -4.52453420410798
| 21> H   -0.93955459131212 1.27821848367455 -3.35535347448669
| 22> H   -2.28279146144495 0.14715274371547 -3.04114619999411
| 23> O   0.26983346710938 -1.40252582870982 -2.62791461563247
| 24> *
| 25>
| 26>                          ****END OF INPUT****

CARTESIAN COORDINATES (ANGSTROEM)
---------------------------------
  C     -1.338496    1.172296   -0.422613
  P     -0.435804   -0.188866   -1.400143
  C      1.264260    0.347655   -0.959167
  C     -1.052832   -1.593997   -0.391141
  H     -1.072589    1.156448    0.647049
  H     -1.083404    2.167258   -0.825119
  H     -2.430969    1.045101   -0.506878
  H     -1.234845   -1.308157    0.654960
  H     -2.001222   -1.932562   -0.837185
  H     -0.334209   -2.419587   -0.465666
  H      1.306315    0.824086    0.030884
  H      1.590705    1.076914   -1.717307
  H      1.932694   -0.520149   -1.018362
  H     -1.067518   -1.621485   -4.232316
  C     -0.402697   -0.879754   -3.742358
  C     -1.185389    0.246490   -3.056464
  H      0.286949   -0.498929   -4.524534
  H     -0.939555    1.278218   -3.355353
  H     -2.282791    0.147153   -3.041146
  O      0.269833   -1.402526   -2.627915

 Total Charge           Charge          ....    0
 Multiplicity           Mult            ....    1
 Number of Electrons    NEL             ....   66
 Basis Dimension        Dim             ....  167

ORBITAL ENERGIES
----------------

  NO   OCC          E(Eh)            E(eV)
   0   2.0000     -77.122607     -2098.6128
   1   2.0000     -19.060147      -518.6530
   2   2.0000     -10.208312      -277.7823
   3   2.0000     -10.182979      -277.0930
   4   2.0000     -10.182728      -277.0861
   5   2.0000     -10.180504      -277.0256
   6   2.0000     -10.162711      -276.5414
   7   2.0000      -6.603989      -179.7037
   8   2.0000      -4.770583      -129.8142
   9   2.0000      -4.770205      -129.8039
  10   2.0000      -4.769493      -129.7845
  11   2.0000      -0.954322       -25.9684
  12   2.0000      -0.761384       -20.7183
  13   2.0000      -0.712442       -19.3865
  14   2.0000      -0.691916       -18.8280
  15   2.0000      -0.664538       -18.0830
  16   2.0000      -0.600991       -16.3538
  17   2.0000      -0.519260       -14.1298
  18   2.0000      -0.464603       -12.6425
  19   2.0000      -0.448976       -12.2173
  20   2.0000      -0.443870       -12.0783
  21   2.0000      -0.427084       -11.6215
  22   2.0000      -0.421528       -11.4704
  23   2.0000      -0.405693       -11.0395
  24   2.0000      -0.392668       -10.6850
  25   2.0000      -0.382930       -10.4201
  26   2.0000      -0.362733        -9.8705
  27   2.0000      -0.362386        -9.8610
  28   2.0000      -0.348533        -9.4841
  29   2.0000      -0.321998        -8.7620
  30   2.0000      -0.296195        -8.0599
  31   2.0000      -0.227399        -6.1878
  32   2.0000      -0.218496        -5.9456
  33   0.0000       0.040968         1.1148
  34   0.0000       0.070928         1.9300
  35   0.0000       0.075357         2.0506
  36   0.0000       0.082859         2.2547
  37   0.0000       0.088159         2.3989

MULLIKEN ATOMIC CHARGES
-----------------------
   0 C :   -0.165430
   1 P :    0.382705
   2 C :   -0.052691
   3 C :   -0.054810
   4 H :    0.023749
   5 H :    0.018996
   6 H :    0.019123
   7 H :    0.025399
   8 H :    0.039093
   9 H :    0.058206
  10 H :    0.025676
  11 H :    0.038612
  12 H :    0.057936
  13 H :   -0.020927
  14 C :    0.284348
  15 C :   -0.159576
  16 H :   -0.021952
  17 H :    0.029232
  18 H :    0.029913
  19 O :   -0.557603
Sum of atomic charges:   -0.0000000

LOEWDIN ATOMIC CHARGES
----------------------
   0 C :   -0.242896
   1 P :    0.913315
   2 C :   -0.192840
   3 C :   -0.193210
   4 H :    0.013144
   5 H :    0.015735
   6 H :    0.015801
   7 H :    0.021552
   8 H :    0.037471
   9 H :    0.036218
  10 H :    0.021861
  11 H :    0.037475
  12 H :    0.036156
  13 H :   -0.004280
  14 C :    0.041870
  15 C :   -0.185504
  16 H :   -0.004959
  17 H :    0.025079
  18 H :    0.025554
  19 O :   -0.417540

  Mayer bond orders larger than 0.100000
B(  0-C ,  1-P ) :   0.9148 B(  0-C ,  4-H ) :   0.9622 B(  0-C ,  5-H ) :   0.9660
B(  0-C ,  6-H ) :   0.9661 B(  1-P ,  2-C ) :   1.0174 B(  1-P ,  3-C ) :   1.0158
B(  1-P , 15-C ) :   0.9772 B(  1-P , 19-O ) :   0.6877 B(  2-C , 10-H ) :   0.9532
B(  2-C , 11-H ) :   0.9462 B(  2-C , 12-H ) :   0.9516 B(  3-C ,  7-H ) :   0.9531
B(  3-C ,  8-H ) :   0.9464 B(  3-C ,  9-H ) :   0.9519 B( 13-H , 14-C ) :   0.9355
B( 14-C , 15-C ) :   1.0415 B( 14-C , 16-H ) :   0.9349 B( 14-C , 19-O ) :   1.0829
B( 15-C , 17-H ) :   0.9321 B( 15-C , 18-H ) :   0.9320

Dispersion correction           -0.034344562
FINAL SINGLE POINT ENERGY      -614.401649899349
Dispersion correction             ... done (  0.0 sec)

DIPOLE MOMENT
-------------

Method             : SCF
Type of density    : Electron Density
Multiplicity       :   1
Irrep              :   0
Energy             :  -614.3673053377092401 Eh
Basis              : AO
                                X                 Y                 Z
Electronic contribution:      1.446771730      -2.491665593      -2.381011871
Nuclear contribution   :     -1.850415117       3.102732737       2.776076276
                        -----------------------------------------
Total Dipole Moment    :     -0.403643387       0.611067145       0.395064405
                        -----------------------------------------
Magnitude (a.u.)       :      0.832109922
Magnitude (Debye)      :      2.115055336

Rotational constants in cm-1:             0.094266             0.061966             0.059331
Rotational constants in MHz :          2826.010430          1857.682475          1778.697218

                             ****ORCA TERMINATED NORMALLY****
TOTAL RUN TIME: 0 days 0 hours 0 minutes 28 seconds 938 msec
