                         Program Version 6.1.0  -  RELEASE   -
|  1> ! B3LYP def2-SVP d3 EnGrad
|  2> %pal nprocs 6 end
|  3> *xyz 0 1
|  4> N   0.3733895436669 1.0282003351527 0.76724205772121
|  5> B   0.93939140995448 0.93545454378422 -0.55730914827358
|  6> N   -0.5599326332573 -1.67478743332043 0.18457492093425
|  7> B   -0.83171901881726 -0.37190332199605 -0.29501738323139
|  8> H   0.22855396196031 -2.22737874908028 -0.12633452119338
|  9> H   1.85478714152616 0.16773339680485 -0.73262494434039
| 10> H   0.7406334053873 1.83998882528264 -1.32997021604931
| 11> H   -0.20359028997753 1.80877639880497 1.0585502024152
| 12> H   0.70148041632447 0.46008561987364 1.53918707894511
| 13> H   -1.10621444217323 -2.11581569218559 0.91281772670785
| 14> H   -1.88097509645783 0.18281797206292 -0.08460203281773
| 15> H   -0.25580439813648 -0.03317189518359 -1.33651374081786
| 16> *
| 17>
| 18>                          ****END OF INPUT****

CARTESIAN COORDINATES (ANGSTROEM)
---------------------------------
  N      0.373390    1.028200    0.767242
  B      0.939391    0.935455   -0.557309
  N     -0.559933   -1.674787    0.184575
  B     -0.831719   -0.371903   -0.295017
  H      0.228554   -2.227379   -0.126335
  H      1.854787    0.167733   -0.732625
  H      0.740633    1.839989   -1.329970
  H     -0.203590    1.808776    1.058550
  H      0.701480    0.460086    1.539187
  H     -1.106214   -2.115816    0.912818
  H     -1.880975    0.182818   -0.084602
  H     -0.255804   -0.033172   -1.336514

 Total Charge           Charge          ....    0
 Multiplicity           Mult            ....    1
 Number of Electrons    NEL             ....   32
 Basis Dimension        Dim             ....   96

ORBITAL ENERGIES
----------------

  NO   OCC          E(Eh)            E(eV)
   0   2.0000     -14.329038      -389.9129
   1   2.0000     -14.301191      -389.1552
   2   2.0000      -6.751731      -183.7239
   3   2.0000      -6.750143      -183.6807
   4   2.0000      -0.860639       -23.4192
   5   2.0000      -0.830778       -22.6066
   6   2.0000      -0.551654       -15.0113
   7   2.0000      -0.509926       -13.8758
   8   2.0000      -0.495454       -13.4820
   9   2.0000      -0.485724       -13.2172
  10   2.0000      -0.402439       -10.9509
  11   2.0000      -0.389775       -10.6063
  12   2.0000      -0.324642        -8.8340
  13   2.0000      -0.313423        -8.5287
  14   2.0000      -0.307738        -8.3740
  15   2.0000      -0.239329        -6.5125
  16   0.0000       0.036915         1.0045
  17   0.0000       0.053121         1.4455
  18   0.0000       0.064865         1.7651
  19   0.0000       0.091827         2.4987
  20   0.0000       0.108793         2.9604

MULLIKEN ATOMIC CHARGES
-----------------------
   0 N :   -0.078827
   1 B :   -0.024895
   2 N :   -0.095222
   3 B :   -0.077091
   4 H :    0.111952
   5 H :   -0.056271
   6 H :   -0.048929
   7 H :    0.127451
   8 H :    0.120847
   9 H :    0.106839
  10 H :   -0.049796
  11 H :   -0.036057
Sum of atomic charges:    0.0000000

LOEWDIN ATOMIC CHARGES
----------------------
   0 N :    0.062313
   1 B :   -0.142974
   2 N :   -0.007856
   3 B :   -0.138954
   4 H :    0.074049
   5 H :   -0.038130
   6 H :   -0.036835
   7 H :    0.085959
   8 H :    0.081565
   9 H :    0.073446
  10 H :   -0.042207
  11 H :    0.029624

  Mayer bond orders larger than 0.100000
B(  0-N ,  1-B ) :   1.2113 B(  0-N ,  3-B ) :   0.3411 B(  0-N ,  7-H ) :   0.9611
B(  0-N ,  8-H ) :   0.9534 B(  1-B ,  3-B ) :   0.1975 B(  1-B ,  5-H ) :   0.9581
B(  1-B ,  6-H ) :   0.9592 B(  1-B , 11-H ) :   0.1999 B(  2-N ,  3-B ) :   1.4675
B(  2-N ,  4-H ) :   0.9546 B(  2-N ,  9-H ) :   0.9651 B(  3-B , 10-H ) :   0.9456
B(  3-B , 11-H ) :   0.7380

Dispersion correction           -0.013211597
FINAL SINGLE POINT ENERGY      -163.849876831547
Dispersion correction             ... done (  0.0 sec)

DIPOLE MOMENT
-------------

Method             : SCF
Type of density    : Electron Density
Multiplicity       :   1
Irrep              :   0
Energy             :  -163.8366652347903312 Eh
Basis              : AO
                                X                 Y                 Z
Electronic contribution:     -0.132022283      -0.302007606       0.880607217
Nuclear contribution   :      0.134085151      -0.051871641       0.138089582
                        -----------------------------------------
Total Dipole Moment    :      0.002062868      -0.353879246       1.018696799
                        -----------------------------------------
Magnitude (a.u.)       :      1.078414552
Magnitude (Debye)      :      2.741111951

Rotational constants in cm-1:             0.465625             0.148751             0.138874
Rotational constants in MHz :         13959.084634          4459.435626          4163.325738

                             ****ORCA TERMINATED NORMALLY****
TOTAL RUN TIME: 0 days 0 hours 0 minutes 8 seconds 63 msec
