                         Program Version 6.1.0  -  RELEASE   -
|  1> ! B3LYP def2-SVP d3 EnGrad
|  2> %pal nprocs 6 end
|  3> *xyz 0 1
|  4> C   -0.05062740915521 -0.53741411559442 -0.00818195708819
|  5> O   -1.19358165523054 0.25553620603839 0.1670048909149
|  6> N   1.13329770740569 0.2899564672468 -0.10003612251284
|  7> H   1.41970834289203 0.63729343224606 0.8154156464882
|  8> H   -0.05910494794143 -1.2476959211931 0.84364542769151
|  9> H   -0.09632484522076 -1.14454814571343 -0.93796566998405
| 10> H   -1.11222842013041 0.97819029490678 -0.4736566954063
| 11> H   1.92009622738063 -0.21146621793709 -0.50974352010324
| 12> *
| 13>
| 14>                          ****END OF INPUT****

CARTESIAN COORDINATES (ANGSTROEM)
---------------------------------
  C     -0.050627   -0.537414   -0.008182
  O     -1.193582    0.255536    0.167005
  N      1.133298    0.289956   -0.100036
  H      1.419708    0.637293    0.815416
  H     -0.059105   -1.247696    0.843645
  H     -0.096325   -1.144548   -0.937966
  H     -1.112228    0.978190   -0.473657
  H      1.920096   -0.211466   -0.509744

 Total Charge           Charge          ....    0
 Multiplicity           Mult            ....    1
 Number of Electrons    NEL             ....   26
 Basis Dimension        Dim             ....   67

ORBITAL ENERGIES
----------------

  NO   OCC          E(Eh)            E(eV)
   0   2.0000     -19.114405      -520.1294
   1   2.0000     -14.309267      -389.3750
   2   2.0000     -10.249477      -278.9024
   3   2.0000      -1.003906       -27.3177
   4   2.0000      -0.857710       -23.3395
   5   2.0000      -0.637008       -17.3339
   6   2.0000      -0.518398       -14.1063
   7   2.0000      -0.485311       -13.2060
   8   2.0000      -0.439043       -11.9470
   9   2.0000      -0.412157       -11.2154
  10   2.0000      -0.333267        -9.0687
  11   2.0000      -0.271923        -7.3994
  12   2.0000      -0.243889        -6.6366
  13   0.0000       0.055006         1.4968
  14   0.0000       0.089756         2.4424
  15   0.0000       0.104995         2.8571
  16   0.0000       0.115633         3.1465
  17   0.0000       0.163315         4.4440

MULLIKEN ATOMIC CHARGES
-----------------------
   0 C :    0.250516
   1 O :   -0.312579
   2 N :   -0.250548
   3 H :    0.095017
   4 H :   -0.009155
   5 H :   -0.016657
   6 H :    0.150872
   7 H :    0.092535
Sum of atomic charges:   -0.0000000

LOEWDIN ATOMIC CHARGES
----------------------
   0 C :    0.102912
   1 O :   -0.145296
   2 N :   -0.127856
   3 H :    0.055499
   4 H :   -0.004104
   5 H :   -0.005597
   6 H :    0.066802
   7 H :    0.057640

  Mayer bond orders larger than 0.100000
B(  0-C ,  1-O ) :   1.0696 B(  0-C ,  2-N ) :   1.0808 B(  0-C ,  4-H ) :   0.9459
B(  0-C ,  5-H ) :   0.9499 B(  1-O ,  6-H ) :   0.9755 B(  2-N ,  3-H ) :   0.9698
B(  2-N ,  7-H ) :   0.9641

Dispersion correction           -0.005951962
FINAL SINGLE POINT ENERGY      -170.858203464906
Dispersion correction             ... done (  0.1 sec)

DIPOLE MOMENT
-------------

Method             : SCF
Type of density    : Electron Density
Multiplicity       :   1
Irrep              :   0
Energy             :  -170.8522515029044939 Eh
Basis              : AO
                                X                 Y                 Z
Electronic contribution:     -1.367869350       0.823604222       0.199438382
Nuclear contribution   :      2.106967424      -0.991709369      -0.335077728
                        -----------------------------------------
Total Dipole Moment    :      0.739098074      -0.168105147      -0.135639346
                        -----------------------------------------
Magnitude (a.u.)       :      0.770015153
Magnitude (Debye)      :      1.957222977

Rotational constants in cm-1:             1.300423             0.330144             0.289984
Rotational constants in MHz :         38985.697256          9897.475627          8693.509374

                             ****ORCA TERMINATED NORMALLY****
TOTAL RUN TIME: 0 days 0 hours 0 minutes 7 seconds 82 msec
