                         Program Version 6.1.0  -  RELEASE   -
|  1> ! B3LYP def2-SVP d3 EnGrad
|  2> %pal nprocs 6 end
|  3> *xyz 0 1
|  4> C   -0.9021720208816 2.12941124364268 -0.71915419924698
|  5> H   -1.52919892687632 2.85373156852426 -0.1802300039992
|  6> H   -1.53172125107839 1.53759012168649 -1.39645164980419
|  7> H   -0.14200470461957 2.66503543775837 -1.30491663063132
|  8> C   -0.2028015890457 1.25529548079583 0.29047992539358
|  9> O   0.45056046085316 0.04485737798215 -0.70242268375477
| 10> O   0.54752415686554 1.59989923129733 1.16338252680575
| 11> C   1.65692593403358 -0.51685817793046 -0.19294999825304
| 12> H   2.22974108685008 -0.88448524174366 -1.0612165248623
| 13> H   2.22746403305837 0.30098451840796 0.27427333384304
| 14> C   1.41769812664341 -1.6316734681801 0.81773124883347
| 15> H   0.9269428962453 -1.23731153900327 1.72064592147261
| 16> H   2.37720704742899 -2.07618424751203 1.12805076948858
| 17> H   0.78668060980337 -2.43071195819088 0.39773084772913
| 18> O   -1.50592840797917 0.33830765790211 0.90301839610982
| 19> H   -1.18995146681344 0.08537092655457 1.78433229301996
| 20> H   -1.64910065688519 -0.62509312897398 0.15612102352812
| 21> O   -1.44783808867043 -1.39377768692246 -0.73106832831293
| 22> H   -2.06721153712527 -1.23459368505402 -1.45650114095054
| 23> H   -0.45281570180669 -0.77979443104089 -0.89085512640875
| 24> *
| 25>
| 26>                          ****END OF INPUT****

CARTESIAN COORDINATES (ANGSTROEM)
---------------------------------
  C     -0.902172    2.129411   -0.719154
  H     -1.529199    2.853732   -0.180230
  H     -1.531721    1.537590   -1.396452
  H     -0.142005    2.665035   -1.304917
  C     -0.202802    1.255295    0.290480
  O      0.450560    0.044857   -0.702423
  O      0.547524    1.599899    1.163383
  C      1.656926   -0.516858   -0.192950
  H      2.229741   -0.884485   -1.061217
  H      2.227464    0.300985    0.274273
  C      1.417698   -1.631673    0.817731
  H      0.926943   -1.237312    1.720646
  H      2.377207   -2.076184    1.128051
  H      0.786681   -2.430712    0.397731
  O     -1.505928    0.338308    0.903018
  H     -1.189951    0.085371    1.784332
  H     -1.649101   -0.625093    0.156121
  O     -1.447838   -1.393778   -0.731068
  H     -2.067212   -1.234594   -1.456501
  H     -0.452816   -0.779794   -0.890855

 Total Charge           Charge          ....    0
 Multiplicity           Mult            ....    1
 Number of Electrons    NEL             ....   68
 Basis Dimension        Dim             ....  172

ORBITAL ENERGIES
----------------

  NO   OCC          E(Eh)            E(eV)
   0   2.0000     -19.143186      -520.9126
   1   2.0000     -19.142497      -520.8938
   2   2.0000     -19.139982      -520.8254
   3   2.0000     -19.093492      -519.5603
   4   2.0000     -10.318759      -280.7877
   5   2.0000     -10.227768      -278.3117
   6   2.0000     -10.187201      -277.2078
   7   2.0000     -10.177611      -276.9469
   8   2.0000      -1.053239       -28.6601
   9   2.0000      -1.010277       -27.4910
  10   2.0000      -0.984852       -26.7992
  11   2.0000      -0.962074       -26.1794
  12   2.0000      -0.747740       -20.3470
  13   2.0000      -0.721002       -19.6195
  14   2.0000      -0.618602       -16.8330
  15   2.0000      -0.562938       -15.3183
  16   2.0000      -0.551323       -15.0023
  17   2.0000      -0.516596       -14.0573
  18   2.0000      -0.488145       -13.2831
  19   2.0000      -0.468859       -12.7583
  20   2.0000      -0.464552       -12.6411
  21   2.0000      -0.428242       -11.6531
  22   2.0000      -0.420772       -11.4498
  23   2.0000      -0.411513       -11.1979
  24   2.0000      -0.392271       -10.6742
  25   2.0000      -0.386555       -10.5187
  26   2.0000      -0.382399       -10.4056
  27   2.0000      -0.372787       -10.1440
  28   2.0000      -0.351068        -9.5531
  29   2.0000      -0.332503        -9.0479
  30   2.0000      -0.309118        -8.4115
  31   2.0000      -0.284307        -7.7364
  32   2.0000      -0.272489        -7.4148
  33   2.0000      -0.258829        -7.0431
  34   0.0000       0.035082         0.9546
  35   0.0000       0.064384         1.7520
  36   0.0000       0.074773         2.0347
  37   0.0000       0.089911         2.4466
  38   0.0000       0.091241         2.4828

MULLIKEN ATOMIC CHARGES
-----------------------
   0 C :    0.119125
   1 H :    0.032985
   2 H :   -0.026165
   3 H :    0.032258
   4 C :    0.171560
   5 O :   -0.464848
   6 O :   -0.260528
   7 C :    0.200179
   8 H :    0.007358
   9 H :    0.027370
  10 C :   -0.045311
  11 H :    0.007524
  12 H :    0.012543
  13 H :    0.025619
  14 O :   -0.352199
  15 H :    0.183913
  16 H :    0.230135
  17 O :   -0.320216
  18 H :    0.174863
  19 H :    0.243833
Sum of atomic charges:   -0.0000000

LOEWDIN ATOMIC CHARGES
----------------------
   0 C :   -0.066506
   1 H :    0.039907
   2 H :    0.018518
   3 H :    0.039745
   4 C :    0.166988
   5 O :   -0.148042
   6 O :   -0.221968
   7 C :    0.073030
   8 H :    0.014885
   9 H :    0.019340
  10 C :   -0.077829
  11 H :    0.018904
  12 H :    0.029864
  13 H :    0.023254
  14 O :   -0.098239
  15 H :    0.073981
  16 H :    0.026348
  17 O :   -0.038200
  18 H :    0.079219
  19 H :    0.026800

  Mayer bond orders larger than 0.100000
B(  0-C ,  1-H ) :   0.9543 B(  0-C ,  2-H ) :   0.9354 B(  0-C ,  3-H ) :   0.9556
B(  0-C ,  4-C ) :   1.0195 B(  4-C ,  5-O ) :   0.5453 B(  4-C ,  6-O ) :   2.0374
B(  4-C , 14-O ) :   0.5848 B(  5-O ,  7-C ) :   0.9328 B(  5-O , 19-H ) :   0.4456
B(  7-C ,  8-H ) :   0.9572 B(  7-C ,  9-H ) :   0.9400 B(  7-C , 10-C ) :   1.1136
B( 10-C , 11-H ) :   0.9644 B( 10-C , 12-H ) :   0.9554 B( 10-C , 13-H ) :   0.9622
B( 14-O , 15-H ) :   0.9569 B( 14-O , 16-H ) :   0.4857 B( 16-H , 17-O ) :   0.5637
B( 17-O , 18-H ) :   0.9816 B( 17-O , 19-H ) :   0.5818

Dispersion correction           -0.027004535
FINAL SINGLE POINT ENERGY      -459.944680581951
Dispersion correction             ... done (  0.1 sec)

DIPOLE MOMENT
-------------

Method             : SCF
Type of density    : Electron Density
Multiplicity       :   1
Irrep              :   0
Energy             :  -459.9176760467653935 Eh
Basis              : AO
                                X                 Y                 Z
Electronic contribution:     -1.165280141       3.175900441       1.172214947
Nuclear contribution   :      0.655005223      -3.749309246      -1.830124642
                        -----------------------------------------
Total Dipole Moment    :     -0.510274918      -0.573408806      -0.657909695
                        -----------------------------------------
Magnitude (a.u.)       :      1.010951689
Magnitude (Debye)      :      2.569634982

Rotational constants in cm-1:             0.072207             0.054953             0.042567
Rotational constants in MHz :          2164.712383          1647.444955          1276.131073

                             ****ORCA TERMINATED NORMALLY****
TOTAL RUN TIME: 0 days 0 hours 0 minutes 29 seconds 333 msec
