                         Program Version 6.1.0  -  RELEASE   -
|  1> ! B3LYP def2-SVP d3 EnGrad
|  2> %pal nprocs 6 end
|  3> *xyz 0 1
|  4> C   0.78861541845697 -0.4466398988294 0.02112691005303
|  5> O   1.25621587694403 0.65894444324682 0.03271489971987
|  6> N   -2.19816464048986 0.26372947730608 0.01069909986343
|  7> H   -2.04664732757616 -0.6770554781555 -0.35398686315426
|  8> H   -1.62030741057421 0.89399779998475 -0.54561371321683
|  9> H   0.55693222943497 -0.9953753071309 -0.92851711548894
| 10> H   -1.8188307912926 0.28341102384664 0.95737757479133
| 11> H   0.56788764509686 -1.02089606026847 0.95815820743237
| 12> *
| 13>
| 14>                          ****END OF INPUT****

CARTESIAN COORDINATES (ANGSTROEM)
---------------------------------
  C      0.788615   -0.446640    0.021127
  O      1.256216    0.658944    0.032715
  N     -2.198165    0.263729    0.010699
  H     -2.046647   -0.677055   -0.353987
  H     -1.620307    0.893998   -0.545614
  H      0.556932   -0.995375   -0.928517
  H     -1.818831    0.283411    0.957378
  H      0.567888   -1.020896    0.958158

 Total Charge           Charge          ....    0
 Multiplicity           Mult            ....    1
 Number of Electrons    NEL             ....   26
 Basis Dimension        Dim             ....   67

ORBITAL ENERGIES
----------------

  NO   OCC          E(Eh)            E(eV)
   0   2.0000     -19.152087      -521.1548
   1   2.0000     -14.309616      -389.3845
   2   2.0000     -10.291131      -280.0359
   3   2.0000      -1.052885       -28.6505
   4   2.0000      -0.840608       -22.8741
   5   2.0000      -0.628046       -17.0900
   6   2.0000      -0.496812       -13.5189
   7   2.0000      -0.461336       -12.5536
   8   2.0000      -0.458320       -12.4715
   9   2.0000      -0.451668       -12.2905
  10   2.0000      -0.407286       -11.0828
  11   2.0000      -0.271080        -7.3765
  12   2.0000      -0.260899        -7.0994
  13   0.0000      -0.046110        -1.2547
  14   0.0000       0.038488         1.0473
  15   0.0000       0.091343         2.4856
  16   0.0000       0.109206         2.9717
  17   0.0000       0.132485         3.6051

MULLIKEN ATOMIC CHARGES
-----------------------
   0 C :    0.141350
   1 O :   -0.213001
   2 N :   -0.233236
   3 H :    0.084881
   4 H :    0.098610
   5 H :    0.014932
   6 H :    0.092058
   7 H :    0.014406
Sum of atomic charges:    0.0000000

LOEWDIN ATOMIC CHARGES
----------------------
   0 C :    0.116974
   1 O :   -0.123468
   2 N :   -0.127270
   3 H :    0.051087
   4 H :    0.056239
   5 H :   -0.013901
   6 H :    0.054197
   7 H :   -0.013858

  Mayer bond orders larger than 0.100000
B(  0-C ,  1-O ) :   2.1093 B(  0-C ,  5-H ) :   0.9088 B(  0-C ,  7-H ) :   0.9088
B(  2-N ,  3-H ) :   0.9981 B(  2-N ,  4-H ) :   0.9960 B(  2-N ,  6-H ) :   0.9978

Dispersion correction           -0.005463670
FINAL SINGLE POINT ENERGY      -170.837036475848
Dispersion correction             ... done (  0.1 sec)

DIPOLE MOMENT
-------------

Method             : SCF
Type of density    : Electron Density
Multiplicity       :   1
Irrep              :   0
Energy             :  -170.8315728062059975 Eh
Basis              : AO
                                X                 Y                 Z
Electronic contribution:      3.683445924       1.251877288       0.023723601
Nuclear contribution   :     -3.522698630      -2.146243239      -0.019075910
                        -----------------------------------------
Total Dipole Moment    :      0.160747294      -0.894365952       0.004647691
                        -----------------------------------------
Magnitude (a.u.)       :      0.908708836
Magnitude (Debye)      :      2.309754302

Rotational constants in cm-1:             1.072836             0.148244             0.136896
Rotational constants in MHz :         32162.810121          4444.240848          4104.045583

                             ****ORCA TERMINATED NORMALLY****
TOTAL RUN TIME: 0 days 0 hours 0 minutes 6 seconds 773 msec
