                         Program Version 6.1.0  -  RELEASE   -
|  1> ! B3LYP def2-SVP d3 EnGrad
|  2> %pal nprocs 6 end
|  3> *xyz 0 1
|  4> N   0.45470324067789 -0.65922893093521 -0.46563499047789
|  5> B   1.54565705345576 0.515154227971 0.03940041448693
|  6> N   -1.70682423097382 0.48520599603544 0.01608389206994
|  7> B   -0.77120828434944 -0.47647086023644 0.36627906728502
|  8> H   -1.54847043145661 1.17318606361105 -0.712852416171
|  9> H   1.12244623834699 1.56109719734361 -0.43640543683472
| 10> H   1.49981461643834 0.49847585768038 1.26301230956161
| 11> H   0.89125230646316 -1.56921105665461 -0.32036634822706
| 12> H   2.63041403969912 0.17129481967722 -0.40739450092811
| 13> H   -2.51046531521261 0.6857787799893 0.59822826140271
| 14> H   -0.92120039720196 -1.18543966334756 1.32469201503453
| 15> H   0.31782116411317 -0.53711143113423 -1.46974426720199
| 16> *
| 17>
| 18>                          ****END OF INPUT****

CARTESIAN COORDINATES (ANGSTROEM)
---------------------------------
  N      0.454703   -0.659229   -0.465635
  B      1.545657    0.515154    0.039400
  N     -1.706824    0.485206    0.016084
  B     -0.771208   -0.476471    0.366279
  H     -1.548470    1.173186   -0.712852
  H      1.122446    1.561097   -0.436405
  H      1.499815    0.498476    1.263012
  H      0.891252   -1.569211   -0.320366
  H      2.630414    0.171295   -0.407395
  H     -2.510465    0.685779    0.598228
  H     -0.921200   -1.185440    1.324692
  H      0.317821   -0.537111   -1.469744

 Total Charge           Charge          ....    0
 Multiplicity           Mult            ....    1
 Number of Electrons    NEL             ....   32
 Basis Dimension        Dim             ....   96

ORBITAL ENERGIES
----------------

  NO   OCC          E(Eh)            E(eV)
   0   2.0000     -14.370797      -391.0493
   1   2.0000     -14.342009      -390.2659
   2   2.0000      -6.787860      -184.7071
   3   2.0000      -6.689548      -182.0318
   4   2.0000      -0.912759       -24.8374
   5   2.0000      -0.867353       -23.6019
   6   2.0000      -0.556287       -15.1373
   7   2.0000      -0.546911       -14.8822
   8   2.0000      -0.521037       -14.1781
   9   2.0000      -0.496172       -13.5015
  10   2.0000      -0.456956       -12.4344
  11   2.0000      -0.375278       -10.2118
  12   2.0000      -0.342303        -9.3145
  13   2.0000      -0.310798        -8.4572
  14   2.0000      -0.269078        -7.3220
  15   2.0000      -0.264379        -7.1941
  16   0.0000       0.013665         0.3718
  17   0.0000       0.031909         0.8683
  18   0.0000       0.058115         1.5814
  19   0.0000       0.078476         2.1354
  20   0.0000       0.112869         3.0713

MULLIKEN ATOMIC CHARGES
-----------------------
   0 N :    0.003987
   1 B :   -0.123175
   2 N :   -0.043477
   3 B :   -0.087743
   4 H :    0.127272
   5 H :   -0.106902
   6 H :   -0.094432
   7 H :    0.150912
   8 H :   -0.091208
   9 H :    0.131723
  10 H :   -0.012252
  11 H :    0.145294
Sum of atomic charges:    0.0000000

LOEWDIN ATOMIC CHARGES
----------------------
   0 N :    0.173694
   1 B :   -0.330663
   2 N :    0.052618
   3 B :   -0.099821
   4 H :    0.088065
   5 H :   -0.060281
   6 H :   -0.044580
   7 H :    0.113111
   8 H :   -0.058155
   9 H :    0.093088
  10 H :   -0.034998
  11 H :    0.107921

  Mayer bond orders larger than 0.100000
B(  0-N ,  1-B ) :   0.7038 B(  0-N ,  3-B ) :   1.0366 B(  0-N ,  7-H ) :   0.9485
B(  0-N , 11-H ) :   0.9419 B(  1-B ,  5-H ) :   0.9718 B(  1-B ,  6-H ) :   0.9329
B(  1-B ,  8-H ) :   0.9702 B(  2-N ,  3-B ) :   1.5828 B(  2-N ,  4-H ) :   0.9406
B(  2-N ,  9-H ) :   0.9600 B(  3-B , 10-H ) :   0.9382

Dispersion correction           -0.012875935
FINAL SINGLE POINT ENERGY      -163.874544421987
Dispersion correction             ... done (  0.0 sec)

DIPOLE MOMENT
-------------

Method             : SCF
Type of density    : Electron Density
Multiplicity       :   1
Irrep              :   0
Energy             :  -163.8616684866777291 Eh
Basis              : AO
                                X                 Y                 Z
Electronic contribution:     -3.296799288      -1.622781634      -0.511777947
Nuclear contribution   :      1.596173885       0.844961359      -0.244258767
                        -----------------------------------------
Total Dipole Moment    :     -1.700625403      -0.777820275      -0.756036715
                        -----------------------------------------
Magnitude (a.u.)       :      2.017107497
Magnitude (Debye)      :      5.127079801

Rotational constants in cm-1:             0.499632             0.156922             0.140048
Rotational constants in MHz :         14978.590253          4704.403573          4198.532335

                             ****ORCA TERMINATED NORMALLY****
TOTAL RUN TIME: 0 days 0 hours 0 minutes 7 seconds 502 msec
