                         Program Version 6.1.0  -  RELEASE   -
|  1> ! B3LYP def2-SVP d3 EnGrad
|  2> %pal nprocs 6 end
|  3> *xyz 0 1
|  4> C   1.92784594838914 -0.15004860384095 -0.13040424061709
|  5> C   0.6807543520486 0.32605630612406 0.03785816407532
|  6> N   -0.48459893346867 -0.40706159964986 0.14888655396428
|  7> C   -1.75983102486192 0.16860934558512 -0.21600123497574
|  8> H   0.52211118741361 1.40702998738294 0.14456291863991
|  9> H   2.78079773163525 0.52960216717395 -0.12764045095541
| 10> H   -0.38594690879185 -1.39687056909376 -0.05569442537626
| 11> H   2.12875973197858 -1.21976443307921 -0.24715930403968
| 12> H   -2.58035947826083 -0.44687286764441 0.18502396797945
| 13> H   -1.85460500253158 1.17145598265224 0.23154092644465
| 14> H   -1.91422860355035 0.27657328438991 -1.31020687513943
| 15> *
| 16>
| 17>                          ****END OF INPUT****

CARTESIAN COORDINATES (ANGSTROEM)
---------------------------------
  C      1.927846   -0.150049   -0.130404
  C      0.680754    0.326056    0.037858
  N     -0.484599   -0.407062    0.148887
  C     -1.759831    0.168609   -0.216001
  H      0.522111    1.407030    0.144563
  H      2.780798    0.529602   -0.127640
  H     -0.385947   -1.396871   -0.055694
  H      2.128760   -1.219764   -0.247159
  H     -2.580359   -0.446873    0.185024
  H     -1.854605    1.171456    0.231541
  H     -1.914229    0.276573   -1.310207

 Total Charge           Charge          ....    0
 Multiplicity           Mult            ....    1
 Number of Electrons    NEL             ....   32
 Basis Dimension        Dim             ....   91

ORBITAL ENERGIES
----------------

  NO   OCC          E(Eh)            E(eV)
   0   2.0000     -14.329107      -389.9148
   1   2.0000     -10.217226      -278.0248
   2   2.0000     -10.207362      -277.7564
   3   2.0000     -10.151014      -276.2231
   4   2.0000      -0.911199       -24.7950
   5   2.0000      -0.733096       -19.9486
   6   2.0000      -0.656040       -17.8518
   7   2.0000      -0.580190       -15.7878
   8   2.0000      -0.480337       -13.0706
   9   2.0000      -0.468717       -12.7544
  10   2.0000      -0.432097       -11.7580
  11   2.0000      -0.398151       -10.8342
  12   2.0000      -0.387526       -10.5451
  13   2.0000      -0.355729        -9.6799
  14   2.0000      -0.311605        -8.4792
  15   2.0000      -0.191798        -5.2191
  16   0.0000       0.043494         1.1835
  17   0.0000       0.065208         1.7744
  18   0.0000       0.078113         2.1256
  19   0.0000       0.100184         2.7261
  20   0.0000       0.128652         3.5008

MULLIKEN ATOMIC CHARGES
-----------------------
   0 C :   -0.088175
   1 C :    0.033433
   2 N :   -0.194926
   3 C :    0.102279
   4 H :   -0.005873
   5 H :    0.008134
   6 H :    0.106015
   7 H :   -0.007929
   8 H :    0.016655
   9 H :    0.021248
  10 H :    0.009139
Sum of atomic charges:    0.0000000

LOEWDIN ATOMIC CHARGES
----------------------
   0 C :   -0.163164
   1 C :    0.014678
   2 N :   -0.051001
   3 C :    0.020526
   4 H :    0.021201
   5 H :    0.021980
   6 H :    0.070587
   7 H :    0.012677
   8 H :    0.021991
   9 H :    0.024513
  10 H :    0.006011

  Mayer bond orders larger than 0.100000
B(  0-C ,  1-C ) :   1.8904 B(  0-C ,  5-H ) :   0.9464 B(  0-C ,  7-H ) :   0.9561
B(  1-C ,  2-N ) :   1.1758 B(  1-C ,  4-H ) :   0.9529 B(  2-N ,  3-C ) :   1.0327
B(  2-N ,  6-H ) :   0.9462 B(  3-C ,  8-H ) :   0.9765 B(  3-C ,  9-H ) :   0.9712
B(  3-C , 10-H ) :   0.9619

Dispersion correction           -0.011048990
FINAL SINGLE POINT ENERGY      -173.023945432604
Dispersion correction             ... done (  0.1 sec)

DIPOLE MOMENT
-------------

Method             : SCF
Type of density    : Electron Density
Multiplicity       :   1
Irrep              :   0
Energy             :  -173.0128964428291738 Eh
Basis              : AO
                                X                 Y                 Z
Electronic contribution:      0.848159717      -0.546013433       0.617368516
Nuclear contribution   :     -1.466482752       0.441663817      -0.782403640
                        -----------------------------------------
Total Dipole Moment    :     -0.618323035      -0.104349616      -0.165035125
                        -----------------------------------------
Magnitude (a.u.)       :      0.648420242
Magnitude (Debye)      :      1.648153275

Rotational constants in cm-1:             1.174494             0.140249             0.130749
Rotational constants in MHz :         35210.446756          4204.550297          3919.753163

                             ****ORCA TERMINATED NORMALLY****
TOTAL RUN TIME: 0 days 0 hours 0 minutes 10 seconds 624 msec
