                         Program Version 6.1.0  -  RELEASE   -
|  1> ! B3LYP def2-SVP d3 EnGrad
|  2> %pal nprocs 6 end
|  3> *xyz 0 1
|  4> C   -3.06566648979681 -1.76745840942799 0.46335557429207
|  5> C   -2.06829698786636 -0.6982538022526 0.11163047322311
|  6> C   -2.095594207134 0.65191786198508 0.69866213513081
|  7> C   -1.57272335941599 1.89584872381225 0.00863129368354
|  8> O   -0.70474917582167 1.66218785607172 -1.07804746923077
|  9> Cl   2.71090085711131 0.5985737154397 -1.51632958432693
| 10> S   1.25235880055549 0.00614046110581 -0.13294594319219
| 11> O   -1.14277964497468 -0.31703715927359 1.13543565610232
| 12> Cl   2.25499946650455 -1.47671827628842 0.95103200152177
| 13> H   -2.57844213887584 -2.75561192336125 0.46682126752109
| 14> H   -3.88246496403837 -1.79420042343965 -0.27650691592907
| 15> H   -3.49558251492125 -1.59185995155658 1.46074908279743
| 16> H   -1.5836984831956 -0.80940050476475 -0.86907033923895
| 17> H   -2.87998215609886 0.86823197198294 1.44097851953143
| 18> H   -2.44187380172446 2.51661444901133 -0.28809929507533
| 19> H   -0.99279532304108 2.48067335916754 0.74130679186476
| 20> H   -1.19244787726637 1.23042205178849 -1.7919082486751
| 21> *
| 22>
| 23>                          ****END OF INPUT****

CARTESIAN COORDINATES (ANGSTROEM)
---------------------------------
  C     -3.065666   -1.767458    0.463356
  C     -2.068297   -0.698254    0.111630
  C     -2.095594    0.651918    0.698662
  C     -1.572723    1.895849    0.008631
  O     -0.704749    1.662188   -1.078047
  Cl     2.710901    0.598574   -1.516330
  S      1.252359    0.006140   -0.132946
  O     -1.142780   -0.317037    1.135436
  Cl     2.254999   -1.476718    0.951032
  H     -2.578442   -2.755612    0.466821
  H     -3.882465   -1.794200   -0.276507
  H     -3.495583   -1.591860    1.460749
  H     -1.583698   -0.809401   -0.869070
  H     -2.879982    0.868232    1.440979
  H     -2.441874    2.516614   -0.288099
  H     -0.992795    2.480673    0.741307
  H     -1.192448    1.230422   -1.791908

 Total Charge           Charge          ....    0
 Multiplicity           Mult            ....    1
 Number of Electrons    NEL             ....   98
 Basis Dimension        Dim             ....  178

ORBITAL ENERGIES
----------------

  NO   OCC          E(Eh)            E(eV)
   0   2.0000    -101.493754     -2761.7855
   1   2.0000    -101.493629     -2761.7821
   2   2.0000     -88.909721     -2419.3565
   3   2.0000     -19.160091      -521.3726
   4   2.0000     -19.159699      -521.3619
   5   2.0000     -10.256465      -279.0926
   6   2.0000     -10.255867      -279.0763
   7   2.0000     -10.254622      -279.0425
   8   2.0000     -10.200249      -277.5629
   9   2.0000      -9.447800      -257.0877
  10   2.0000      -9.447710      -257.0853
  11   2.0000      -7.998294      -217.6447
  12   2.0000      -7.217572      -196.4001
  13   2.0000      -7.217546      -196.3994
  14   2.0000      -7.207238      -196.1189
  15   2.0000      -7.207092      -196.1150
  16   2.0000      -7.205808      -196.0800
  17   2.0000      -7.205697      -196.0770
  18   2.0000      -5.969742      -162.4449
  19   2.0000      -5.966889      -162.3673
  20   2.0000      -5.951782      -161.9562
  21   2.0000      -1.085423       -29.5359
  22   2.0000      -1.034188       -28.1417
  23   2.0000      -0.861799       -23.4508
  24   2.0000      -0.801077       -21.7984
  25   2.0000      -0.752415       -20.4743
  26   2.0000      -0.741814       -20.1858
  27   2.0000      -0.650288       -17.6952
  28   2.0000      -0.635715       -17.2987
  29   2.0000      -0.600895       -16.3512
  30   2.0000      -0.539127       -14.6704
  31   2.0000      -0.517772       -14.0893
  32   2.0000      -0.484707       -13.1896
  33   2.0000      -0.453463       -12.3393
  34   2.0000      -0.441062       -12.0019
  35   2.0000      -0.425157       -11.5691
  36   2.0000      -0.420664       -11.4469
  37   2.0000      -0.409109       -11.1324
  38   2.0000      -0.384795       -10.4708
  39   2.0000      -0.382606       -10.4112
  40   2.0000      -0.358138        -9.7454
  41   2.0000      -0.354297        -9.6409
  42   2.0000      -0.317116        -8.6292
  43   2.0000      -0.313508        -8.5310
  44   2.0000      -0.308912        -8.4059
  45   2.0000      -0.306146        -8.3307
  46   2.0000      -0.294628        -8.0172
  47   2.0000      -0.274342        -7.4652
  48   2.0000      -0.221319        -6.0224
  49   0.0000      -0.061822        -1.6823
  50   0.0000      -0.047555        -1.2940
  51   0.0000       0.035396         0.9632
  52   0.0000       0.060786         1.6541
  53   0.0000       0.070739         1.9249

MULLIKEN ATOMIC CHARGES
-----------------------
   0 C :    0.091737
   1 C :    0.032539
   2 C :    0.011855
   3 C :    0.280337
   4 O :   -0.304245
   5 Cl:   -0.158427
   6 S :    0.226704
   7 O :   -0.323083
   8 Cl:   -0.153504
   9 H :    0.034330
  10 H :    0.021291
  11 H :    0.013639
  12 H :    0.004884
  13 H :    0.014531
  14 H :    0.007640
  15 H :    0.027520
  16 H :    0.172251
Sum of atomic charges:   -0.0000000

LOEWDIN ATOMIC CHARGES
----------------------
   0 C :   -0.054311
   1 C :    0.053022
   2 C :    0.033713
   3 C :    0.064942
   4 O :   -0.115859
   5 Cl:   -0.121483
   6 S :    0.173844
   7 O :   -0.174704
   8 Cl:   -0.116442
   9 H :    0.037799
  10 H :    0.033722
  11 H :    0.032279
  12 H :    0.005453
  13 H :    0.020433
  14 H :    0.016459
  15 H :    0.033792
  16 H :    0.077341

  Mayer bond orders larger than 0.100000
B(  0-C ,  1-C ) :   1.0801 B(  0-C ,  9-H ) :   0.9547 B(  0-C , 10-H ) :   0.9573
B(  0-C , 11-H ) :   0.9520 B(  1-C ,  2-C ) :   1.0538 B(  1-C ,  7-O ) :   0.9357
B(  1-C , 12-H ) :   0.9203 B(  2-C ,  3-C ) :   1.0037 B(  2-C ,  7-O ) :   0.9615
B(  2-C , 13-H ) :   0.9232 B(  3-C ,  4-O ) :   1.0300 B(  3-C , 14-H ) :   0.9420
B(  3-C , 15-H ) :   0.9269 B(  4-O , 16-H ) :   0.9703 B(  5-Cl,  6-S ) :   0.9802
B(  6-S ,  8-Cl) :   0.9859

Dispersion correction           -0.029260136
FINAL SINGLE POINT ENERGY     -1625.267606672122
Dispersion correction             ... done (  0.0 sec)

DIPOLE MOMENT
-------------

Method             : SCF
Type of density    : Electron Density
Multiplicity       :   1
Irrep              :   0
Energy             : -1625.2383465364480344 Eh
Basis              : AO
                                X                 Y                 Z
Electronic contribution:     23.989655022      -1.291576915      -2.125223622
Nuclear contribution   :    -26.156148470       1.543307905       1.772029708
                        -----------------------------------------
Total Dipole Moment    :     -2.166493448       0.251730990      -0.353193913
                        -----------------------------------------
Magnitude (a.u.)       :      2.209481453
Magnitude (Debye)      :      5.616055539

Rotational constants in cm-1:             0.041832             0.019011             0.014473
Rotational constants in MHz :          1254.089661           569.928553           433.889739

                             ****ORCA TERMINATED NORMALLY****
TOTAL RUN TIME: 0 days 0 hours 0 minutes 25 seconds 738 msec
