                         Program Version 6.1.0  -  RELEASE   -
|  1> ! B3LYP def2-SVP d3 EnGrad
|  2> %pal nprocs 6 end
|  3> *xyz 0 1
|  4> C   2.13342647608445 0.01633163491782 -0.190684568358
|  5> C   0.89689498710353 0.62100138261653 0.46773998427661
|  6> C   -0.43412839290266 -0.00170648928413 0.02171355112509
|  7> C   -0.56752899823844 -1.4810774639944 0.3704154627686
|  8> O   -0.59473201162522 0.08095432884364 -1.38140365947759
|  9> H   2.03049988413955 0.01998323311779 -1.2868147995383
| 10> H   2.2971878284273 -1.02657829469743 0.12412494560561
| 11> H   3.03756492110919 0.58654658235403 0.07356252983735
| 12> H   0.20451597880396 -2.08039595077005 -0.13213034872474
| 13> H   -1.54846993842157 -1.84951998040731 0.02940932785274
| 14> H   -0.48915466261334 -1.62309275318984 1.45771135789236
| 15> H   -0.53463078915951 1.01817385993338 -1.61730537246461
| 16> H   0.82799656310009 1.69972581555737 0.23890181057861
| 17> H   -2.28659102094474 0.38627806728372 0.41347055725789
| 18> O   -1.43157304748085 0.75953625502882 0.67107454389151
| 19> H   0.95673922261828 0.55085877269004 1.56603567747684
| 20> *
| 21>
| 22>                          ****END OF INPUT****

CARTESIAN COORDINATES (ANGSTROEM)
---------------------------------
  C      2.133426    0.016332   -0.190685
  C      0.896895    0.621001    0.467740
  C     -0.434128   -0.001706    0.021714
  C     -0.567529   -1.481077    0.370415
  O     -0.594732    0.080954   -1.381404
  H      2.030500    0.019983   -1.286815
  H      2.297188   -1.026578    0.124125
  H      3.037565    0.586547    0.073563
  H      0.204516   -2.080396   -0.132130
  H     -1.548470   -1.849520    0.029409
  H     -0.489155   -1.623093    1.457711
  H     -0.534631    1.018174   -1.617305
  H      0.827997    1.699726    0.238902
  H     -2.286591    0.386278    0.413471
  O     -1.431573    0.759536    0.671075
  H      0.956739    0.550859    1.566036

 Total Charge           Charge          ....    0
 Multiplicity           Mult            ....    1
 Number of Electrons    NEL             ....   50
 Basis Dimension        Dim             ....  134

ORBITAL ENERGIES
----------------

  NO   OCC          E(Eh)            E(eV)
   0   2.0000     -19.127849      -520.4952
   1   2.0000     -19.126856      -520.4682
   2   2.0000     -10.276273      -279.6316
   3   2.0000     -10.178510      -276.9713
   4   2.0000     -10.176058      -276.9046
   5   2.0000     -10.175074      -276.8778
   6   2.0000      -1.045607       -28.4524
   7   2.0000      -0.971351       -26.4318
   8   2.0000      -0.770200       -20.9582
   9   2.0000      -0.714249       -19.4357
  10   2.0000      -0.641059       -17.4441
  11   2.0000      -0.569290       -15.4912
  12   2.0000      -0.530744       -14.4423
  13   2.0000      -0.469300       -12.7703
  14   2.0000      -0.460431       -12.5290
  15   2.0000      -0.425824       -11.5872
  16   2.0000      -0.406982       -11.0745
  17   2.0000      -0.390009       -10.6127
  18   2.0000      -0.377576       -10.2744
  19   2.0000      -0.365993        -9.9592
  20   2.0000      -0.359898        -9.7933
  21   2.0000      -0.335013        -9.1162
  22   2.0000      -0.311633        -8.4800
  23   2.0000      -0.301118        -8.1938
  24   2.0000      -0.270682        -7.3656
  25   0.0000       0.046870         1.2754
  26   0.0000       0.074642         2.0311
  27   0.0000       0.086305         2.3485
  28   0.0000       0.107721         2.9312
  29   0.0000       0.112115         3.0508

MULLIKEN ATOMIC CHARGES
-----------------------
   0 C :    0.019993
   1 C :    0.022490
   2 C :    0.075210
   3 C :    0.067633
   4 O :   -0.277795
   5 H :    0.008265
   6 H :    0.010039
   7 H :    0.008784
   8 H :    0.014810
   9 H :    0.001120
  10 H :    0.013571
  11 H :    0.156836
  12 H :   -0.008864
  13 H :    0.154423
  14 O :   -0.269875
  15 H :    0.003360
Sum of atomic charges:   -0.0000000

LOEWDIN ATOMIC CHARGES
----------------------
   0 C :   -0.056975
   1 C :   -0.047791
   2 C :    0.085790
   3 C :   -0.060434
   4 O :   -0.126772
   5 H :    0.020812
   6 H :    0.020832
   7 H :    0.024542
   8 H :    0.028918
   9 H :    0.023349
  10 H :    0.027760
  11 H :    0.070251
  12 H :    0.019553
  13 H :    0.069735
  14 O :   -0.125741
  15 H :    0.026171

  Mayer bond orders larger than 0.100000
B(  0-C ,  1-C ) :   1.0912 B(  0-C ,  5-H ) :   0.9616 B(  0-C ,  6-H ) :   0.9673
B(  0-C ,  7-H ) :   0.9614 B(  1-C ,  2-C ) :   1.0249 B(  1-C , 12-H ) :   0.9289
B(  1-C , 15-H ) :   0.9330 B(  2-C ,  3-C ) :   1.0558 B(  2-C ,  4-O ) :   1.0716
B(  2-C , 14-O ) :   1.0962 B(  3-C ,  8-H ) :   0.9497 B(  3-C ,  9-H ) :   0.9488
B(  3-C , 10-H ) :   0.9610 B(  4-O , 11-H ) :   0.9720 B( 13-H , 14-O ) :   0.9724

Dispersion correction           -0.020053253
FINAL SINGLE POINT ENERGY      -308.510678072996
Dispersion correction             ... done (  0.0 sec)

DIPOLE MOMENT
-------------

Method             : SCF
Type of density    : Electron Density
Multiplicity       :   1
Irrep              :   0
Energy             :  -308.4906248199645802 Eh
Basis              : AO
                                X                 Y                 Z
Electronic contribution:     -4.590592104       2.268746140      -1.069362705
Nuclear contribution   :      4.555441371      -2.262088184       1.059033968
                        -----------------------------------------
Total Dipole Moment    :     -0.035150733       0.006657956      -0.010328736
                        -----------------------------------------
Magnitude (a.u.)       :      0.037236879
Magnitude (Debye)      :      0.094648625

Rotational constants in cm-1:             0.156554             0.089238             0.086627
Rotational constants in MHz :          4693.368659          2675.294176          2597.021171

                             ****ORCA TERMINATED NORMALLY****
TOTAL RUN TIME: 0 days 0 hours 0 minutes 19 seconds 287 msec
