                         Program Version 6.1.0  -  RELEASE   -
|  1> ! B3LYP def2-SVP d3 EnGrad
|  2> %pal nprocs 6 end
|  3> *xyz 0 1
|  4> C   2.29055976574594 -0.87304750056168 -0.26735026039115
|  5> C   1.48774952755635 0.10057523579219 0.08596865175619
|  6> C   0.67898218158056 1.0682214869272 0.44591111363436
|  7> C   -0.77516636677652 1.21363853857394 0.04842945597428
|  8> C   -1.40508024876833 -0.00401800330223 -0.63389661661711
|  9> C   -1.60938195266162 -1.19912272760246 0.29853372117589
| 10> H   -0.65388943930243 -1.55497626744845 0.71297220330993
| 11> H   2.88044743354838 -0.82338022034687 -1.19030653285135
| 12> H   2.4009920024587 -1.77504757553094 0.3468655317747
| 13> H   -2.37830432042672 0.29979587343661 -1.05641618224194
| 14> H   -0.77763638036449 -0.30318128479992 -1.49164463553947
| 15> H   -2.07897962010903 -2.04348957369123 -0.23126038300863
| 16> H   -2.26286313303387 -0.93200691601811 1.14646089092074
| 17> H   -1.35727172513216 1.47630755755056 0.95152668904896
| 18> H   -0.85661334147027 2.09535514788761 -0.61486387170526
| 19> H   1.09147061715551 1.86996222913374 1.07464522475982
| 20> *
| 21>
| 22>                          ****END OF INPUT****

CARTESIAN COORDINATES (ANGSTROEM)
---------------------------------
  C      2.290560   -0.873048   -0.267350
  C      1.487750    0.100575    0.085969
  C      0.678982    1.068221    0.445911
  C     -0.775166    1.213639    0.048429
  C     -1.405080   -0.004018   -0.633897
  C     -1.609382   -1.199123    0.298534
  H     -0.653889   -1.554976    0.712972
  H      2.880447   -0.823380   -1.190307
  H      2.400992   -1.775048    0.346866
  H     -2.378304    0.299796   -1.056416
  H     -0.777636   -0.303181   -1.491645
  H     -2.078980   -2.043490   -0.231260
  H     -2.262863   -0.932007    1.146461
  H     -1.357272    1.476308    0.951527
  H     -0.856613    2.095355   -0.614864
  H      1.091471    1.869962    1.074645

 Total Charge           Charge          ....    0
 Multiplicity           Mult            ....    1
 Number of Electrons    NEL             ....   46
 Basis Dimension        Dim             ....  134

ORBITAL ENERGIES
----------------

  NO   OCC          E(Eh)            E(eV)
   0   2.0000     -10.193480      -277.3787
   1   2.0000     -10.191233      -277.3175
   2   2.0000     -10.190058      -277.2856
   3   2.0000     -10.188940      -277.2552
   4   2.0000     -10.179046      -276.9859
   5   2.0000     -10.170494      -276.7532
   6   2.0000      -0.802602       -21.8399
   7   2.0000      -0.754815       -20.5396
   8   2.0000      -0.706729       -19.2311
   9   2.0000      -0.647765       -17.6266
  10   2.0000      -0.579146       -15.7594
  11   2.0000      -0.494619       -13.4593
  12   2.0000      -0.465411       -12.6645
  13   2.0000      -0.449436       -12.2298
  14   2.0000      -0.438984       -11.9454
  15   2.0000      -0.429117       -11.6769
  16   2.0000      -0.394879       -10.7452
  17   2.0000      -0.386748       -10.5239
  18   2.0000      -0.344004        -9.3608
  19   2.0000      -0.334764        -9.1094
  20   2.0000      -0.327938        -8.9236
  21   2.0000      -0.261054        -7.1036
  22   2.0000      -0.248528        -6.7628
  23   0.0000       0.013860         0.3772
  24   0.0000       0.021610         0.5880
  25   0.0000       0.065511         1.7827
  26   0.0000       0.087599         2.3837
  27   0.0000       0.103358         2.8125

MULLIKEN ATOMIC CHARGES
-----------------------
   0 C :   -0.204666
   1 C :    0.182650
   2 C :   -0.225400
   3 C :    0.072328
   4 C :   -0.002368
   5 C :    0.002724
   6 H :    0.015867
   7 H :    0.049824
   8 H :    0.049737
   9 H :   -0.004399
  10 H :    0.007872
  11 H :    0.008344
  12 H :    0.002270
  13 H :    0.001601
  14 H :    0.013113
  15 H :    0.030505
Sum of atomic charges:    0.0000000

LOEWDIN ATOMIC CHARGES
----------------------
   0 C :   -0.103394
   1 C :    0.011716
   2 C :   -0.074949
   3 C :   -0.024292
   4 C :   -0.035724
   5 C :   -0.056656
   6 H :    0.022883
   7 H :    0.038727
   8 H :    0.038061
   9 H :    0.020994
  10 H :    0.022327
  11 H :    0.022668
  12 H :    0.018848
  13 H :    0.026456
  14 H :    0.031616
  15 H :    0.040721

  Mayer bond orders larger than 0.100000
B(  0-C ,  1-C ) :   1.9514 B(  0-C ,  7-H ) :   0.9328 B(  0-C ,  8-H ) :   0.9336
B(  1-C ,  2-C ) :   1.8004 B(  2-C ,  3-C ) :   1.0190 B(  2-C , 15-H ) :   0.9384
B(  3-C ,  4-C ) :   1.1119 B(  3-C , 13-H ) :   0.9292 B(  3-C , 14-H ) :   0.9251
B(  4-C ,  5-C ) :   1.1058 B(  4-C ,  9-H ) :   0.9390 B(  4-C , 10-H ) :   0.9333
B(  5-C ,  6-H ) :   0.9720 B(  5-C , 11-H ) :   0.9661 B(  5-C , 12-H ) :   0.9683

Dispersion correction           -0.021089514
FINAL SINGLE POINT ENERGY      -234.286173772263
Dispersion correction             ... done (  0.0 sec)

DIPOLE MOMENT
-------------

Method             : SCF
Type of density    : Electron Density
Multiplicity       :   1
Irrep              :   0
Energy             :  -234.2650842585320845 Eh
Basis              : AO
                                X                 Y                 Z
Electronic contribution:      4.069627184       1.897166139       0.235663862
Nuclear contribution   :     -4.202037597      -1.811602471      -0.258999706
                        -----------------------------------------
Total Dipole Moment    :     -0.132410413       0.085563667      -0.023335844
                        -----------------------------------------
Magnitude (a.u.)       :      0.159368191
Magnitude (Debye)      :      0.405081749

Rotational constants in cm-1:             0.171956             0.080567             0.062108
Rotational constants in MHz :          5155.110506          2415.345850          1861.945960

                             ****ORCA TERMINATED NORMALLY****
TOTAL RUN TIME: 0 days 0 hours 0 minutes 18 seconds 522 msec
