                         Program Version 6.1.0  -  RELEASE   -
|  1> ! B3LYP def2-SVP d3 EnGrad
|  2> %pal nprocs 6 end
|  3> *xyz 0 1
|  4> N   1.36406767002805 0.57393252457815 0.14980471244649
|  5> B   -1.42450105506725 0.79552009065435 -0.12803478750451
|  6> B   0.72614772813542 -0.89109336433453 -0.09341857778236
|  7> N   -0.83567990663615 -0.70984776522154 0.02821541113751
|  8> H   2.32752656044424 0.62117507100485 -0.18435933254849
|  9> H   1.33684766570794 0.87295117180461 1.12709381929581
| 10> H   0.76617296503733 1.23630627030672 -0.37677721878209
| 11> H   -1.11165414963136 1.41154125115436 0.89283462627309
| 12> H   -0.8879998338566 1.29740920586359 -1.12598805697629
| 13> H   -2.63703334883869 0.73279574269989 -0.26615289499964
| 14> H   1.02485677431995 -1.19666463516674 -1.23506100623413
| 15> H   1.1785987639453 -1.64638365104599 0.7509830918716
| 16> H   -1.17941903218736 -1.0836004236311 0.91395452446313
| 17> H   -1.2751928014008 -1.28938048866659 -0.68814531066014
| 18> *
| 19>
| 20>                          ****END OF INPUT****

CARTESIAN COORDINATES (ANGSTROEM)
---------------------------------
  N      1.364068    0.573933    0.149805
  B     -1.424501    0.795520   -0.128035
  B      0.726148   -0.891093   -0.093419
  N     -0.835680   -0.709848    0.028215
  H      2.327527    0.621175   -0.184359
  H      1.336848    0.872951    1.127094
  H      0.766173    1.236306   -0.376777
  H     -1.111654    1.411541    0.892835
  H     -0.888000    1.297409   -1.125988
  H     -2.637033    0.732796   -0.266153
  H      1.024857   -1.196665   -1.235061
  H      1.178599   -1.646384    0.750983
  H     -1.179419   -1.083600    0.913955
  H     -1.275193   -1.289380   -0.688145

 Total Charge           Charge          ....    0
 Multiplicity           Mult            ....    1
 Number of Electrons    NEL             ....   34
 Basis Dimension        Dim             ....  106

ORBITAL ENERGIES
----------------

  NO   OCC          E(Eh)            E(eV)
   0   2.0000     -14.407410      -392.0456
   1   2.0000     -14.345658      -390.3652
   2   2.0000      -6.744471      -183.5264
   3   2.0000      -6.686194      -181.9406
   4   2.0000      -0.943724       -25.6800
   5   2.0000      -0.875364       -23.8199
   6   2.0000      -0.566676       -15.4200
   7   2.0000      -0.555187       -15.1074
   8   2.0000      -0.535507       -14.5719
   9   2.0000      -0.503424       -13.6989
  10   2.0000      -0.480410       -13.0726
  11   2.0000      -0.414933       -11.2909
  12   2.0000      -0.376376       -10.2417
  13   2.0000      -0.318977        -8.6798
  14   2.0000      -0.298928        -8.1342
  15   2.0000      -0.269141        -7.3237
  16   2.0000      -0.263666        -7.1747
  17   0.0000       0.018809         0.5118
  18   0.0000       0.053808         1.4642
  19   0.0000       0.073482         1.9995
  20   0.0000       0.109105         2.9689
  21   0.0000       0.111368         3.0305

MULLIKEN ATOMIC CHARGES
-----------------------
   0 N :    0.042919
   1 B :   -0.159942
   2 B :   -0.094307
   3 N :   -0.003858
   4 H :    0.147582
   5 H :    0.148291
   6 H :    0.148104
   7 H :   -0.126237
   8 H :   -0.136855
   9 H :   -0.075053
  10 H :   -0.079091
  11 H :   -0.085219
  12 H :    0.134298
  13 H :    0.139368
Sum of atomic charges:    0.0000000

LOEWDIN ATOMIC CHARGES
----------------------
   0 N :    0.233784
   1 B :   -0.378724
   2 B :   -0.256144
   3 N :    0.162589
   4 H :    0.111444
   5 H :    0.109831
   6 H :    0.115412
   7 H :   -0.072464
   8 H :   -0.063711
   9 H :   -0.054047
  10 H :   -0.054843
  11 H :   -0.060919
  12 H :    0.100821
  13 H :    0.106972

  Mayer bond orders larger than 0.100000
B(  0-N ,  2-B ) :   0.8183 B(  0-N ,  4-H ) :   0.9556 B(  0-N ,  5-H ) :   0.9596
B(  0-N ,  6-H ) :   0.9208 B(  1-B ,  3-N ) :   0.8313 B(  1-B ,  7-H ) :   0.9658
B(  1-B ,  8-H ) :   0.8898 B(  1-B ,  9-H ) :   0.9786 B(  2-B ,  3-N ) :   0.9296
B(  2-B , 10-H ) :   0.9644 B(  2-B , 11-H ) :   0.9601 B(  3-N , 12-H ) :   0.9501
B(  3-N , 13-H ) :   0.9538

Dispersion correction           -0.016253700
FINAL SINGLE POINT ENERGY      -165.057368349217
Dispersion correction             ... done (  0.0 sec)

DIPOLE MOMENT
-------------

Method             : SCF
Type of density    : Electron Density
Multiplicity       :   1
Irrep              :   0
Energy             :  -165.0411146496960271 Eh
Basis              : AO
                                X                 Y                 Z
Electronic contribution:      1.346455575      -1.405051850       0.497777099
Nuclear contribution   :      0.182206312       1.228943781       0.000968617
                        -----------------------------------------
Total Dipole Moment    :      1.528661886      -0.176108069       0.498745716
                        -----------------------------------------
Magnitude (a.u.)       :      1.617581065
Magnitude (Debye)      :      4.111564317

Rotational constants in cm-1:             0.348827             0.180255             0.132533
Rotational constants in MHz :         10457.570605          5403.894758          3973.231665

                             ****ORCA TERMINATED NORMALLY****
TOTAL RUN TIME: 0 days 0 hours 0 minutes 12 seconds 721 msec
