                         Program Version 6.1.0  -  RELEASE   -
|  1> ! B3LYP def2-SVP d3 EnGrad
|  2> %pal nprocs 6 end
|  3> *xyz 0 1
|  4> H   0.03988268893892 -0.07439866157674 -0.02712210462153
|  5> C   0.01846360454808 -0.03712906132438 1.07464005716126
|  6> H   1.06307140476405 -0.07724773597764 1.42506661137141
|  7> C   -0.69419096340752 1.2158565937292 1.57983446167989
|  8> H   -0.48123426504611 -0.95536111898985 1.42552022752276
|  9> H   -0.71558783361924 1.2531384565241 2.68159663788868
| 10> H   -0.19450919358503 2.13408948131421 1.22893392246421
| 11> H   -1.73880645259313 1.25596204630117 1.22942918653333
| 12> *
| 13>
| 14>                          ****END OF INPUT****

CARTESIAN COORDINATES (ANGSTROEM)
---------------------------------
  H      0.039883   -0.074399   -0.027122
  C      0.018464   -0.037129    1.074640
  H      1.063071   -0.077248    1.425067
  C     -0.694191    1.215857    1.579834
  H     -0.481234   -0.955361    1.425520
  H     -0.715588    1.253138    2.681597
  H     -0.194509    2.134089    1.228934
  H     -1.738806    1.255962    1.229429

 Total Charge           Charge          ....    0
 Multiplicity           Mult            ....    1
 Number of Electrons    NEL             ....   18
 Basis Dimension        Dim             ....   58

ORBITAL ENERGIES
----------------

  NO   OCC          E(Eh)            E(eV)
   0   2.0000     -10.174942      -276.8743
   1   2.0000     -10.174916      -276.8736
   2   2.0000      -0.739539       -20.1239
   3   2.0000      -0.602849       -16.4044
   4   2.0000      -0.428358       -11.6562
   5   2.0000      -0.428273       -11.6539
   6   2.0000      -0.366679        -9.9778
   7   2.0000      -0.337770        -9.1912
   8   2.0000      -0.337668        -9.1884
   9   0.0000       0.065700         1.7878
  10   0.0000       0.110858         3.0166
  11   0.0000       0.126177         3.4335
  12   0.0000       0.126215         3.4345
  13   0.0000       0.158658         4.3173

MULLIKEN ATOMIC CHARGES
-----------------------
   0 H :    0.013595
   1 C :   -0.040872
   2 H :    0.013655
   3 C :   -0.040872
   4 H :    0.013623
   5 H :    0.013595
   6 H :    0.013623
   7 H :    0.013655
Sum of atomic charges:    0.0000000

LOEWDIN ATOMIC CHARGES
----------------------
   0 H :    0.021322
   1 C :   -0.063966
   2 H :    0.021316
   3 C :   -0.063967
   4 H :    0.021329
   5 H :    0.021322
   6 H :    0.021329
   7 H :    0.021316

  Mayer bond orders larger than 0.100000
B(  0-H ,  1-C ) :   0.9770 B(  1-C ,  2-H ) :   0.9769 B(  1-C ,  3-C ) :   1.1211
B(  1-C ,  4-H ) :   0.9770 B(  3-C ,  5-H ) :   0.9770 B(  3-C ,  6-H ) :   0.9770
B(  3-C ,  7-H ) :   0.9769

Dispersion correction           -0.005399433
FINAL SINGLE POINT ENERGY       -79.711994745635
Dispersion correction             ... done (  0.0 sec)

DIPOLE MOMENT
-------------

Method             : SCF
Type of density    : Electron Density
Multiplicity       :   1
Irrep              :   0
Energy             :   -79.7065953123651667 Eh
Basis              : AO
                                X                 Y                 Z
Electronic contribution:      0.000001098       0.000000156      -0.000000710
Nuclear contribution   :     -0.000001180      -0.000000097       0.000000693
                        -----------------------------------------
Total Dipole Moment    :     -0.000000082       0.000000058      -0.000000017
                        -----------------------------------------
Magnitude (a.u.)       :      0.000000102
Magnitude (Debye)      :      0.000000260

Rotational constants in cm-1:             2.649093             0.662507             0.662439
Rotational constants in MHz :         79417.819761         19861.469957         19859.409249

                             ****ORCA TERMINATED NORMALLY****
TOTAL RUN TIME: 0 days 0 hours 0 minutes 5 seconds 904 msec
