                         Program Version 6.1.0  -  RELEASE   -
|  1> ! B3LYP def2-SVP d3 EnGrad
|  2> %pal nprocs 6 end
|  3> *xyz 0 1
|  4> C   -0.31453245955038 -0.3594786052165 0.14181924750571
|  5> C   -0.64450182998895 0.99808860666992 0.26234762519522
|  6> C   -1.98248634815379 1.39340117567396 0.14843186181413
|  7> C   -2.9906824630074 0.45711430286116 -0.08467589986157
|  8> C   -2.65142930029917 -0.89678075464612 -0.20518503712449
|  9> C   -1.32484283540348 -1.30603425806222 -0.093059252748
| 10> O   0.95417050062877 -0.84917668276919 0.24225660895197
| 11> C   2.60741768004499 0.82491786027016 -0.60058736640988
| 12> C   1.99453335376547 0.03848490566068 0.52637397090201
| 13> C   3.33691066719299 -0.3550690446005 0.00555622105094
| 14> H   0.13119155458063 1.74348141087165 0.43552922099166
| 15> H   -2.23243130572198 2.45351808323307 0.24371079090259
| 16> H   -4.03171342320368 0.77594416105048 -0.17298263341639
| 17> H   -3.42968451549496 -1.64246382518126 -0.38811797739427
| 18> H   -1.04034640088136 -2.35650477673884 -0.18189544103771
| 19> H   2.16284387560624 0.68739000655274 -1.58996465242565
| 20> H   1.92190188219615 0.50577511417886 1.51731655503649
| 21> H   4.21161920402264 -0.17171664228666 0.63517373632748
| 22> H   3.37248329723512 -1.27781068767997 -0.57978493851505
| 23> H   2.97015286643215 1.83644265015857 -0.39528363974519
| 24> *
| 25>
| 26>                          ****END OF INPUT****

CARTESIAN COORDINATES (ANGSTROEM)
---------------------------------
  C     -0.314532   -0.359479    0.141819
  C     -0.644502    0.998089    0.262348
  C     -1.982486    1.393401    0.148432
  C     -2.990682    0.457114   -0.084676
  C     -2.651429   -0.896781   -0.205185
  C     -1.324843   -1.306034   -0.093059
  O      0.954171   -0.849177    0.242257
  C      2.607418    0.824918   -0.600587
  C      1.994533    0.038485    0.526374
  C      3.336911   -0.355069    0.005556
  H      0.131192    1.743481    0.435529
  H     -2.232431    2.453518    0.243711
  H     -4.031713    0.775944   -0.172983
  H     -3.429685   -1.642464   -0.388118
  H     -1.040346   -2.356505   -0.181895
  H      2.162844    0.687390   -1.589965
  H      1.921902    0.505775    1.517317
  H      4.211619   -0.171717    0.635174
  H      3.372483   -1.277811   -0.579785
  H      2.970153    1.836443   -0.395284

 Total Charge           Charge          ....    0
 Multiplicity           Mult            ....    1
 Number of Electrons    NEL             ....   72
 Basis Dimension        Dim             ....  190

ORBITAL ENERGIES
----------------

  NO   OCC          E(Eh)            E(eV)
   0   2.0000     -19.161637      -521.4146
   1   2.0000     -10.247287      -278.8428
   2   2.0000     -10.242736      -278.7190
   3   2.0000     -10.194512      -277.4068
   4   2.0000     -10.194266      -277.4001
   5   2.0000     -10.187071      -277.2043
   6   2.0000     -10.186348      -277.1846
   7   2.0000     -10.182501      -277.0799
   8   2.0000     -10.180075      -277.0139
   9   2.0000     -10.178925      -276.9826
  10   2.0000      -1.059928       -28.8421
  11   2.0000      -0.859238       -23.3810
  12   2.0000      -0.832522       -22.6541
  13   2.0000      -0.735250       -20.0072
  14   2.0000      -0.727806       -19.8046
  15   2.0000      -0.636338       -17.3156
  16   2.0000      -0.608101       -16.5473
  17   2.0000      -0.591264       -16.0891
  18   2.0000      -0.566286       -15.4094
  19   2.0000      -0.539703       -14.6861
  20   2.0000      -0.498394       -13.5620
  21   2.0000      -0.489280       -13.3140
  22   2.0000      -0.465497       -12.6668
  23   2.0000      -0.435274       -11.8444
  24   2.0000      -0.430930       -11.7262
  25   2.0000      -0.417240       -11.3537
  26   2.0000      -0.407440       -11.0870
  27   2.0000      -0.381434       -10.3793
  28   2.0000      -0.369979       -10.0676
  29   2.0000      -0.359651        -9.7866
  30   2.0000      -0.345120        -9.3912
  31   2.0000      -0.333901        -9.0859
  32   2.0000      -0.302284        -8.2256
  33   2.0000      -0.286609        -7.7990
  34   2.0000      -0.251410        -6.8412
  35   2.0000      -0.220530        -6.0009
  36   0.0000      -0.004695        -0.1278
  37   0.0000       0.008994         0.2447
  38   0.0000       0.060319         1.6414
  39   0.0000       0.069641         1.8950
  40   0.0000       0.081772         2.2251

MULLIKEN ATOMIC CHARGES
-----------------------
   0 C :    0.212617
   1 C :   -0.063078
   2 C :    0.019926
   3 C :    0.021593
   4 C :    0.014411
   5 C :   -0.012944
   6 O :   -0.284250
   7 C :   -0.051269
   8 C :    0.080678
   9 C :   -0.004305
  10 H :   -0.023052
  11 H :   -0.018872
  12 H :   -0.022825
  13 H :   -0.016391
  14 H :   -0.023585
  15 H :    0.044088
  16 H :    0.022018
  17 H :    0.030699
  18 H :    0.041382
  19 H :    0.033160
Sum of atomic charges:    0.0000000

LOEWDIN ATOMIC CHARGES
----------------------
   0 C :    0.055446
   1 C :   -0.073412
   2 C :   -0.016871
   3 C :   -0.049814
   4 C :   -0.017728
   5 C :   -0.048690
   6 O :   -0.085269
   7 C :   -0.052734
   8 C :    0.055075
   9 C :   -0.039267
  10 H :    0.027756
  11 H :    0.026347
  12 H :    0.024402
  13 H :    0.027274
  14 H :    0.029915
  15 H :    0.033715
  16 H :    0.014288
  17 H :    0.028657
  18 H :    0.034367
  19 H :    0.026543

  Mayer bond orders larger than 0.100000
B(  0-C ,  1-C ) :   1.3356 B(  0-C ,  5-C ) :   1.3627 B(  0-C ,  6-O ) :   1.0941
B(  1-C ,  2-C ) :   1.3513 B(  1-C , 10-H ) :   0.9867 B(  2-C ,  3-C ) :   1.3980
B(  2-C , 11-H ) :   0.9802 B(  3-C ,  4-C ) :   1.3613 B(  3-C , 12-H ) :   0.9872
B(  4-C ,  5-C ) :   1.3965 B(  4-C , 13-H ) :   0.9824 B(  5-C , 14-H ) :   0.9876
B(  6-O ,  8-C ) :   1.0061 B(  7-C ,  8-C ) :   0.9986 B(  7-C ,  9-C ) :   1.0286
B(  7-C , 15-H ) :   0.9489 B(  7-C , 19-H ) :   0.9512 B(  8-C ,  9-C ) :   0.9914
B(  8-C , 16-H ) :   0.9442 B(  9-C , 17-H ) :   0.9472 B(  9-C , 18-H ) :   0.9490

Dispersion correction           -0.033370285
FINAL SINGLE POINT ENERGY      -423.622473797932
Dispersion correction             ... done (  0.0 sec)

DIPOLE MOMENT
-------------

Method             : SCF
Type of density    : Electron Density
Multiplicity       :   1
Irrep              :   0
Energy             :  -423.5891035125109170 Eh
Basis              : AO
                                X                 Y                 Z
Electronic contribution:     -3.774387572      -2.118001016       0.804810676
Nuclear contribution   :      4.103345834       2.486331951      -0.766048804
                        -----------------------------------------
Total Dipole Moment    :      0.328958262       0.368330935       0.038761872
                        -----------------------------------------
Magnitude (a.u.)       :      0.495362190
Magnitude (Debye)      :      1.259110623

Rotational constants in cm-1:             0.128456             0.026269             0.022793
Rotational constants in MHz :          3851.011284           787.533020           683.304519

                             ****ORCA TERMINATED NORMALLY****
TOTAL RUN TIME: 0 days 0 hours 0 minutes 33 seconds 162 msec
