                         Program Version 6.1.0  -  RELEASE   -
|  1> ! B3LYP def2-SVP d3 EnGrad
|  2> %pal nprocs 6 end
|  3> *xyz 0 1
|  4> H   -0.59215382231151 0.62644642468121 -1.7642538890026
|  5> C   -0.36073807984053 1.08877570338537 -0.80119902546226
|  6> C   -0.11806025490152 0.23461083302743 0.33454453126683
|  7> H   -0.460480867737 2.1792237988947 -0.72488293082962
|  8> H   0.01074114281634 0.72628487863802 1.30575310156742
|  9> O   1.18015245508012 0.3257190014204 -0.47159841972739
| 10> H   1.77225593647672 0.93557666048469 0.00509781487829
| 11> O   0.7908702583067 -1.73333560726466 1.02637087269911
| 12> C   -0.33025622864604 -1.30306156313959 0.50623786390622
| 13> H   -1.27988340866853 -1.40407847994824 1.11639423075276
| 14> H   -0.61244713057475 -1.67616165017935 -0.53246415004875
| 15> *
| 16>
| 17>                          ****END OF INPUT****

CARTESIAN COORDINATES (ANGSTROEM)
---------------------------------
  H     -0.592154    0.626446   -1.764254
  C     -0.360738    1.088776   -0.801199
  C     -0.118060    0.234611    0.334545
  H     -0.460481    2.179224   -0.724883
  H      0.010741    0.726285    1.305753
  O      1.180152    0.325719   -0.471598
  H      1.772256    0.935577    0.005098
  O      0.790870   -1.733336    1.026371
  C     -0.330256   -1.303062    0.506238
  H     -1.279883   -1.404078    1.116394
  H     -0.612447   -1.676162   -0.532464

 Total Charge           Charge          ....    0
 Multiplicity           Mult            ....    1
 Number of Electrons    NEL             ....   40
 Basis Dimension        Dim             ....  100

ORBITAL ENERGIES
----------------

  NO   OCC          E(Eh)            E(eV)
   0   2.0000     -19.245858      -523.7064
   1   2.0000     -18.999387      -516.9996
   2   2.0000     -10.300576      -280.2929
   3   2.0000     -10.269970      -279.4601
   4   2.0000     -10.198373      -277.5118
   5   2.0000      -1.103198       -30.0195
   6   2.0000      -0.892044       -24.2738
   7   2.0000      -0.799498       -21.7554
   8   2.0000      -0.663601       -18.0575
   9   2.0000      -0.594790       -16.1851
  10   2.0000      -0.581671       -15.8281
  11   2.0000      -0.484829       -13.1929
  12   2.0000      -0.473458       -12.8835
  13   2.0000      -0.437944       -11.9171
  14   2.0000      -0.421540       -11.4707
  15   2.0000      -0.367849       -10.0097
  16   2.0000      -0.367041        -9.9877
  17   2.0000      -0.314947        -8.5701
  18   2.0000      -0.167066        -4.5461
  19   2.0000      -0.156819        -4.2672
  20   0.0000      -0.093793        -2.5522
  21   0.0000       0.005675         0.1544
  22   0.0000       0.047166         1.2835
  23   0.0000       0.064432         1.7533
  24   0.0000       0.086727         2.3600

MULLIKEN ATOMIC CHARGES
-----------------------
   0 H :    0.084234
   1 C :    0.131434
   2 C :   -0.065792
   3 H :    0.079068
   4 H :    0.045854
   5 O :   -0.182477
   6 H :    0.203198
   7 O :   -0.510679
   8 C :    0.385678
   9 H :   -0.065394
  10 H :   -0.105124
Sum of atomic charges:    0.0000000

LOEWDIN ATOMIC CHARGES
----------------------
   0 H :    0.047474
   1 C :    0.159403
   2 C :    0.053428
   3 H :    0.038019
   4 H :    0.028843
   5 O :    0.043559
   6 H :    0.105826
   7 O :   -0.429001
   8 C :    0.024054
   9 H :   -0.029653
  10 H :   -0.041953

  Mayer bond orders larger than 0.100000
B(  0-H ,  1-C ) :   0.9355 B(  1-C ,  2-C ) :   1.0555 B(  1-C ,  3-H ) :   0.9443
B(  1-C ,  5-O ) :   0.6082 B(  1-C ,  7-O ) :   0.1904 B(  2-C ,  4-H ) :   0.9501
B(  2-C ,  5-O ) :   0.6926 B(  2-C ,  8-C ) :   0.8953 B(  5-O ,  6-H ) :   0.9410
B(  7-O ,  8-C ) :   1.4386 B(  8-C ,  9-H ) :   0.8739 B(  8-C , 10-H ) :   0.8305

Dispersion correction           -0.011667853
FINAL SINGLE POINT ENERGY      -267.830471757279
Dispersion correction             ... done (  0.0 sec)

DIPOLE MOMENT
-------------

Method             : SCF
Type of density    : Electron Density
Multiplicity       :   1
Irrep              :   0
Energy             :  -267.8188039043406548 Eh
Basis              : AO
                                X                 Y                 Z
Electronic contribution:      2.123848501      -0.019380349       0.215807516
Nuclear contribution   :     -2.638024656       2.875500206      -1.217950657
                        -----------------------------------------
Total Dipole Moment    :     -0.514176156       2.856119857      -1.002143141
                        -----------------------------------------
Magnitude (a.u.)       :      3.070193582
Magnitude (Debye)      :      7.803811906

Rotational constants in cm-1:             0.380460             0.130056             0.108893
Rotational constants in MHz :         11405.892922          3898.968960          3264.515330

                             ****ORCA TERMINATED NORMALLY****
TOTAL RUN TIME: 0 days 0 hours 0 minutes 15 seconds 575 msec
