                         Program Version 6.1.0  -  RELEASE   -
|  1> ! B3LYP def2-SVP d3 EnGrad
|  2> %pal nprocs 6 end
|  3> *xyz 0 2
|  4> C   -1.87144828697355 0.89038404766507 -1.18996658804099
|  5> C   -1.394826492321 0.93227295210145 0.07674392763589
|  6> C   -1.58403020124066 -0.24748571200454 1.05419698768042
|  7> C   -1.83359142431499 -1.61527693896381 0.33839486854816
|  8> C   -2.81650602966398 -1.45105887124982 -0.82681678117739
|  9> C   -2.4173177151515 -0.3680621094571 -1.82085509309786
| 10> H   -2.94979175080287 -2.41620949996115 -1.34360983678075
| 11> H   -3.80455360188764 -1.19403799053509 -0.41210111262581
| 12> H   -1.64812676607113 -0.74414371964669 -2.52301518532607
| 13> H   -3.28324337419225 -0.11104485592901 -2.45578197062747
| 14> C   -1.80945983849807 2.05341001894929 -2.14702435023519
| 15> H   -1.68534307726239 3.02616147403232 -1.65400015844843
| 16> H   -0.97036308110986 1.92680086876667 -2.85640668932827
| 17> H   -2.72884387447686 2.09853020697111 -2.75455403885262
| 18> C   -0.59132515341663 -2.4996417862515 0.00591426006501
| 19> C   -0.7850360441919 2.21280936681682 0.63975606472911
| 20> C   0.55025999982246 -1.99024766984968 -0.83771126481838
| 21> H   -0.18824765708146 -2.86157734408093 0.96084507421632
| 22> C   0.56633499282489 2.69695047413103 0.03929339294932
| 23> C   1.76730967070507 1.79150952079218 0.209834180556
| 24> H   0.78468366956504 3.67469662580614 0.50891360700482
| 25> C   -0.40321875776782 -0.39640200685704 2.02782255157351
| 26> H   -0.36404108334104 0.43091675818883 2.75004906612238
| 27> H   -0.51192027511586 -1.32197933060241 2.6144355608213
| 28> C   -2.83622206614095 0.08712232243255 1.90574250169275
| 29> H   -2.73179053768623 1.07355666196697 2.3843862722508
| 30> H   -3.74874088017298 0.11393807904052 1.29306637708267
| 31> H   -2.9743972321922 -0.65954972859859 2.70590113593357
| 32> H   -1.50115173477744 3.03959387927165 0.49036543138172
| 33> H   -0.6765317083552 2.13051116923792 1.72948784794106
| 34> H   0.42781099532727 2.8924677188756 -1.03260287851394
| 35> C   2.26091603601318 1.13917619514214 -0.86152124795736
| 36> H   1.77496393767338 1.33631158967634 -1.82328616413002
| 37> C   3.36743651419073 0.12733627755428 -0.93099970738899
| 38> H   4.1283491687799 0.46296044541941 -1.65872222330286
| 39> H   3.88849202816822 0.03522424125833 0.03378009064461
| 40> C   2.86632525325368 -1.2722281632162 -1.39028703026963
| 41> H   2.43356718124522 -1.18146834523494 -2.39968185448393
| 42> H   3.74534836229062 -1.93766751669904 -1.47376078109055
| 43> C   1.84793137008846 -1.86645682040461 -0.44767179379761
| 44> H   0.27748265222899 -0.08243157545263 -1.41605272233946
| 45> H   0.34410052747841 -1.88622595472551 -1.90601035625192
| 46> C   2.36556367237335 1.73947377710692 1.59127555649388
| 47> H   2.76922627152274 2.73226355572204 1.86172240247133
| 48> H   1.61286006665922 1.49326852446036 2.3555522856853
| 49> H   3.18460281768473 1.01305871205536 1.67997727339736
| 50> C   2.3695624645594 -2.18438074891533 0.92867313817058
| 51> H   3.30749608032691 -2.76185601120865 0.85088578319303
| 52> H   2.61540860568278 -1.27253145557634 1.49972283772733
| 53> H   1.66584577558962 -2.76765301037873 1.53604858996299
| 54> H   -1.00215295913316 -3.39646604700141 -0.49407667022631
| 55> H   -2.36130860999922 -2.23196207138303 1.08764523422977
| 56> H   0.55165209928458 -0.43266017925753 1.49608419895078
| 57> *
| 58>
| 59>                          ****END OF INPUT****

CARTESIAN COORDINATES (ANGSTROEM)
---------------------------------
  C     -1.871448    0.890384   -1.189967
  C     -1.394826    0.932273    0.076744
  C     -1.584030   -0.247486    1.054197
  C     -1.833591   -1.615277    0.338395
  C     -2.816506   -1.451059   -0.826817
  C     -2.417318   -0.368062   -1.820855
  H     -2.949792   -2.416209   -1.343610
  H     -3.804554   -1.194038   -0.412101
  H     -1.648127   -0.744144   -2.523015
  H     -3.283243   -0.111045   -2.455782
  C     -1.809460    2.053410   -2.147024
  H     -1.685343    3.026161   -1.654000
  H     -0.970363    1.926801   -2.856407
  H     -2.728844    2.098530   -2.754554
  C     -0.591325   -2.499642    0.005914
  C     -0.785036    2.212809    0.639756
  C      0.550260   -1.990248   -0.837711
  H     -0.188248   -2.861577    0.960845
  C      0.566335    2.696950    0.039293
  C      1.767310    1.791510    0.209834
  H      0.784684    3.674697    0.508914
  C     -0.403219   -0.396402    2.027823
  H     -0.364041    0.430917    2.750049
  H     -0.511920   -1.321979    2.614436
  C     -2.836222    0.087122    1.905743
  H     -2.731791    1.073557    2.384386
  H     -3.748741    0.113938    1.293066
  H     -2.974397   -0.659550    2.705901
  H     -1.501152    3.039594    0.490365
  H     -0.676532    2.130511    1.729488
  H      0.427811    2.892468   -1.032603
  C      2.260916    1.139176   -0.861521
  H      1.774964    1.336312   -1.823286
  C      3.367437    0.127336   -0.931000
  H      4.128349    0.462960   -1.658722
  H      3.888492    0.035224    0.033780
  C      2.866325   -1.272228   -1.390287
  H      2.433567   -1.181468   -2.399682
  H      3.745348   -1.937668   -1.473761
  C      1.847931   -1.866457   -0.447672
  H      0.277483   -0.082432   -1.416053
  H      0.344101   -1.886226   -1.906010
  C      2.365564    1.739474    1.591276
  H      2.769226    2.732264    1.861722
  H      1.612860    1.493269    2.355552
  H      3.184603    1.013059    1.679977
  C      2.369562   -2.184381    0.928673
  H      3.307496   -2.761856    0.850886
  H      2.615409   -1.272531    1.499723
  H      1.665846   -2.767653    1.536049
  H     -1.002153   -3.396466   -0.494077
  H     -2.361309   -2.231962    1.087645
  H      0.551652   -0.432660    1.496084

 Total Charge           Charge          ....    0
 Multiplicity           Mult            ....    2
 Number of Electrons    NEL             ....  153
 Basis Dimension        Dim             ....  445

ORBITAL ENERGIES
----------------
                 SPIN UP ORBITALS
  NO   OCC          E(Eh)            E(eV)
   0   1.0000     -10.188953      -277.2555
   1   1.0000     -10.180416      -277.0232
   2   1.0000     -10.180042      -277.0130
   3   1.0000     -10.179592      -277.0008
   4   1.0000     -10.178776      -276.9786
   5   1.0000     -10.177713      -276.9497
   6   1.0000     -10.176776      -276.9241
   7   1.0000     -10.176705      -276.9222
   8   1.0000     -10.176586      -276.9190
   9   1.0000     -10.175644      -276.8934
  10   1.0000     -10.175504      -276.8895
  11   1.0000     -10.175439      -276.8878
  12   1.0000     -10.173542      -276.8362
  13   1.0000     -10.172749      -276.8146
  14   1.0000     -10.172320      -276.8029
  15   1.0000     -10.171779      -276.7882
  16   1.0000     -10.170598      -276.7560
  17   1.0000     -10.169188      -276.7177
  18   1.0000     -10.167360      -276.6679
  19   1.0000     -10.164464      -276.5891
  20   1.0000      -0.839066       -22.8322
  21   1.0000      -0.811645       -22.0860
  22   1.0000      -0.799896       -21.7663
  23   1.0000      -0.773940       -21.0600
  24   1.0000      -0.759755       -20.6740
  25   1.0000      -0.748309       -20.3625
  26   1.0000      -0.709840       -19.3157
  27   1.0000      -0.706238       -19.2177
  28   1.0000      -0.672901       -18.3106
  29   1.0000      -0.667944       -18.1757
  30   1.0000      -0.665382       -18.1060
  31   1.0000      -0.663266       -18.0484
  32   1.0000      -0.630489       -17.1565
  33   1.0000      -0.613709       -16.6999
  34   1.0000      -0.576281       -15.6814
  35   1.0000      -0.564014       -15.3476
  36   1.0000      -0.544828       -14.8255
  37   1.0000      -0.511041       -13.9061
  38   1.0000      -0.502082       -13.6624
  39   1.0000      -0.479948       -13.0601
  40   1.0000      -0.473876       -12.8948
  41   1.0000      -0.466013       -12.6809
  42   1.0000      -0.459130       -12.4936
  43   1.0000      -0.444214       -12.0877
  44   1.0000      -0.443637       -12.0720
  45   1.0000      -0.437193       -11.8966
  46   1.0000      -0.431430       -11.7398
  47   1.0000      -0.419982       -11.4283
  48   1.0000      -0.413411       -11.2495
  49   1.0000      -0.408211       -11.1080
  50   1.0000      -0.405910       -11.0454
  51   1.0000      -0.398180       -10.8350
  52   1.0000      -0.392463       -10.6795
  53   1.0000      -0.391198       -10.6450
  54   1.0000      -0.388410       -10.5692
  55   1.0000      -0.380594       -10.3565
  56   1.0000      -0.376297       -10.2396
  57   1.0000      -0.369454       -10.0534
  58   1.0000      -0.368106       -10.0167
  59   1.0000      -0.366578        -9.9751
  60   1.0000      -0.362226        -9.8567
  61   1.0000      -0.355164        -9.6645
  62   1.0000      -0.351698        -9.5702
  63   1.0000      -0.343261        -9.3406
  64   1.0000      -0.339930        -9.2500
  65   1.0000      -0.336630        -9.1602
  66   1.0000      -0.334507        -9.1024
  67   1.0000      -0.326586        -8.8869
  68   1.0000      -0.319992        -8.7074
  69   1.0000      -0.310266        -8.4428
  70   1.0000      -0.306170        -8.3313
  71   1.0000      -0.293417        -7.9843
  72   1.0000      -0.281436        -7.6583
  73   1.0000      -0.272844        -7.4245
  74   1.0000      -0.228953        -6.2301
  75   1.0000      -0.218620        -5.9489
  76   1.0000      -0.159488        -4.3399
  77   0.0000       0.017793         0.4842
  78   0.0000       0.022243         0.6053
  79   0.0000       0.025595         0.6965
  80   0.0000       0.049933         1.3587
  81   0.0000       0.062742         1.7073

                 SPIN DOWN ORBITALS
  NO   OCC          E(Eh)            E(eV)
   0   1.0000     -10.188962      -277.2557
   1   1.0000     -10.180169      -277.0165
   2   1.0000     -10.179720      -277.0043
   3   1.0000     -10.179017      -276.9851
   4   1.0000     -10.177676      -276.9486
   5   1.0000     -10.176978      -276.9297
   6   1.0000     -10.176819      -276.9253
   7   1.0000     -10.176476      -276.9160
   8   1.0000     -10.176081      -276.9052
   9   1.0000     -10.175703      -276.8949
  10   1.0000     -10.175609      -276.8924
  11   1.0000     -10.175482      -276.8889
  12   1.0000     -10.172813      -276.8163
  13   1.0000     -10.172310      -276.8026
  14   1.0000     -10.172096      -276.7968
  15   1.0000     -10.171655      -276.7848
  16   1.0000     -10.170593      -276.7559
  17   1.0000     -10.169184      -276.7176
  18   1.0000     -10.167496      -276.6716
  19   1.0000     -10.164462      -276.5891
  20   1.0000      -0.838435       -22.8150
  21   1.0000      -0.809363       -22.0239
  22   1.0000      -0.798465       -21.7273
  23   1.0000      -0.773044       -21.0356
  24   1.0000      -0.758884       -20.6503
  25   1.0000      -0.748278       -20.3617
  26   1.0000      -0.709184       -19.2979
  27   1.0000      -0.705830       -19.2066
  28   1.0000      -0.672537       -18.3007
  29   1.0000      -0.667824       -18.1724
  30   1.0000      -0.664900       -18.0928
  31   1.0000      -0.662851       -18.0371
  32   1.0000      -0.629626       -17.1330
  33   1.0000      -0.613227       -16.6868
  34   1.0000      -0.575943       -15.6722
  35   1.0000      -0.563531       -15.3345
  36   1.0000      -0.544091       -14.8055
  37   1.0000      -0.507547       -13.8111
  38   1.0000      -0.500179       -13.6106
  39   1.0000      -0.478795       -13.0287
  40   1.0000      -0.473404       -12.8820
  41   1.0000      -0.465489       -12.6666
  42   1.0000      -0.458668       -12.4810
  43   1.0000      -0.443392       -12.0653
  44   1.0000      -0.442360       -12.0372
  45   1.0000      -0.436041       -11.8653
  46   1.0000      -0.430440       -11.7129
  47   1.0000      -0.419531       -11.4160
  48   1.0000      -0.411692       -11.2027
  49   1.0000      -0.407363       -11.0849
  50   1.0000      -0.404439       -11.0054
  51   1.0000      -0.397564       -10.8183
  52   1.0000      -0.392165       -10.6713
  53   1.0000      -0.391006       -10.6398
  54   1.0000      -0.387809       -10.5528
  55   1.0000      -0.380470       -10.3531
  56   1.0000      -0.375768       -10.2252
  57   1.0000      -0.368617       -10.0306
  58   1.0000      -0.366726        -9.9791
  59   1.0000      -0.366226        -9.9655
  60   1.0000      -0.361679        -9.8418
  61   1.0000      -0.353797        -9.6273
  62   1.0000      -0.350540        -9.5387
  63   1.0000      -0.342951        -9.3322
  64   1.0000      -0.339416        -9.2360
  65   1.0000      -0.335675        -9.1342
  66   1.0000      -0.334051        -9.0900
  67   1.0000      -0.325825        -8.8661
  68   1.0000      -0.317962        -8.6522
  69   1.0000      -0.308903        -8.4057
  70   1.0000      -0.304902        -8.2968
  71   1.0000      -0.292932        -7.9711
  72   1.0000      -0.281023        -7.6470
  73   1.0000      -0.242787        -6.6066
  74   1.0000      -0.225291        -6.1305
  75   1.0000      -0.212158        -5.7731
  76   0.0000      -0.033833        -0.9206
  77   0.0000       0.021678         0.5899
  78   0.0000       0.025941         0.7059
  79   0.0000       0.034781         0.9464
  80   0.0000       0.050417         1.3719

MULLIKEN ATOMIC CHARGES AND SPIN POPULATIONS
--------------------------------------------
   0 C :   -0.243362    0.032728
   1 C :   -0.014743    0.009356
   2 C :   -0.239864   -0.001216
   3 C :   -0.023178   -0.004182
   4 C :    0.080965    0.000359
   5 C :    0.121884   -0.000970
   6 H :   -0.024218   -0.000089
   7 H :   -0.011732    0.000061
   8 H :   -0.005915    0.006083
   9 H :   -0.017057   -0.000535
  10 C :    0.101428   -0.002570
  11 H :    0.008575   -0.000060
  12 H :    0.015136    0.007748
  13 H :   -0.002260   -0.000401
  14 C :    0.166890    0.014433
  15 C :    0.075106    0.002094
  16 C :   -0.055386   -0.155312
  17 H :   -0.024084   -0.000262
  18 C :    0.112711   -0.005009
  19 C :   -0.157046    0.081684
  20 H :   -0.017472    0.001906
  21 C :    0.095765    0.000302
  22 H :    0.000083   -0.000063
  23 H :   -0.010840    0.000056
  24 C :    0.114146    0.000063
  25 H :   -0.006811   -0.000032
  26 H :   -0.003383    0.000288
  27 H :   -0.004790    0.000492
  28 H :    0.000781    0.000767
  29 H :   -0.022755    0.000002
  30 H :   -0.020717    0.000287
  31 C :   -0.070720   -0.046713
  32 H :   -0.015503    0.003132
  33 C :    0.090277    0.012311
  34 H :   -0.001821   -0.000165
  35 H :   -0.010642    0.000143
  36 C :    0.080039   -0.017853
  37 H :   -0.010089    0.000267
  38 H :   -0.005824    0.004349
  39 C :   -0.165241    0.264758
  40 H :   -0.083467    0.784409
  41 H :   -0.008567    0.011219
  42 C :    0.098172   -0.007124
  43 H :    0.009293    0.003087
  44 H :   -0.000770    0.004199
  45 H :    0.002114    0.000145
  46 C :    0.096352   -0.024144
  47 H :    0.003259    0.008013
  48 H :    0.018377    0.016112
  49 H :    0.001235    0.001206
  50 H :   -0.015499   -0.004286
  51 H :   -0.032316   -0.000231
  52 H :    0.033482   -0.000843
Sum of atomic charges         :    0.0000000

LOEWDIN ATOMIC CHARGES AND SPIN POPULATIONS
-------------------------------------------
   0 C :   -0.043143    0.035136
   1 C :   -0.025370    0.023580
   2 C :   -0.034453   -0.000230
   3 C :   -0.012363   -0.004161
   4 C :   -0.024891    0.000139
   5 C :   -0.028730    0.004755
   6 H :    0.017202   -0.000063
   7 H :    0.018472    0.000066
   8 H :    0.020994    0.004922
   9 H :    0.021453   -0.000282
  10 C :   -0.048589    0.001341
  11 H :    0.023166    0.000038
  12 H :    0.028513    0.005124
  13 H :    0.024496   -0.000065
  14 C :   -0.029042    0.002450
  15 C :   -0.023615    0.001762
  16 C :   -0.046536   -0.071872
  17 H :    0.019590    0.000179
  18 C :   -0.014962    0.000099
  19 C :   -0.040921    0.062452
  20 H :    0.021149    0.001503
  21 C :   -0.038773    0.000023
  22 H :    0.014468    0.000002
  23 H :    0.019007    0.000047
  24 C :   -0.034796    0.000194
  25 H :    0.018572    0.000004
  26 H :    0.016914    0.000281
  27 H :    0.016247    0.000347
  28 H :    0.027739    0.000696
  29 H :    0.016107    0.000062
  30 H :    0.021754    0.000306
  31 C :   -0.044363   -0.016444
  32 H :    0.014887    0.009392
  33 C :   -0.028004    0.006961
  34 H :    0.027246   -0.000297
  35 H :    0.017245    0.000162
  36 C :   -0.017017   -0.003773
  37 H :    0.021006    0.001065
  38 H :    0.021741    0.003735
  39 C :   -0.039518    0.204244
  40 H :   -0.021847    0.692246
  41 H :    0.018523    0.016305
  42 C :   -0.051303   -0.001173
  43 H :    0.030777    0.002737
  44 H :    0.024650    0.003090
  45 H :    0.021058    0.000184
  46 C :   -0.051867   -0.003916
  47 H :    0.028726    0.006898
  48 H :    0.027031    0.012736
  49 H :    0.023878    0.000679
  50 H :    0.027730   -0.003513
  51 H :    0.020911   -0.000115
  52 H :    0.028854   -0.000038

  Mayer bond orders larger than 0.100000
B(  0-C ,  1-C ) :   1.8442 B(  0-C ,  5-C ) :   1.0441 B(  0-C , 10-C ) :   1.1081
B(  1-C ,  2-C ) :   0.9484 B(  1-C , 15-C ) :   1.0508 B(  2-C ,  3-C ) :   0.9869
B(  2-C , 21-C ) :   1.0799 B(  2-C , 24-C ) :   1.0366 B(  3-C ,  4-C ) :   1.0649
B(  3-C , 14-C ) :   1.0660 B(  3-C , 51-H ) :   0.8841 B(  4-C ,  5-C ) :   1.0989
B(  4-C ,  6-H ) :   0.9167 B(  4-C ,  7-H ) :   0.9298 B(  5-C ,  8-H ) :   0.9026
B(  5-C ,  9-H ) :   0.9116 B( 10-C , 11-H ) :   0.9404 B( 10-C , 12-H ) :   0.9388
B( 10-C , 13-H ) :   0.9411 B( 14-C , 16-C ) :   1.0628 B( 14-C , 17-H ) :   0.9102
B( 14-C , 50-H ) :   0.8961 B( 15-C , 18-C ) :   1.0815 B( 15-C , 28-H ) :   0.9087
B( 15-C , 29-H ) :   0.9169 B( 16-C , 39-C ) :   1.7679 B( 16-C , 40-H ) :   0.1211
B( 16-C , 41-H ) :   0.9230 B( 18-C , 19-C ) :   1.0518 B( 18-C , 20-H ) :   0.9118
B( 18-C , 30-H ) :   0.9206 B( 19-C , 31-C ) :   1.8741 B( 19-C , 42-C ) :   1.0858
B( 21-C , 22-H ) :   0.9406 B( 21-C , 23-H ) :   0.9393 B( 21-C , 52-H ) :   0.9417
B( 24-C , 25-H ) :   0.9530 B( 24-C , 26-H ) :   0.9591 B( 24-C , 27-H ) :   0.9544
B( 31-C , 32-H ) :   0.9293 B( 31-C , 33-C ) :   1.0569 B( 33-C , 34-H ) :   0.9107
B( 33-C , 35-H ) :   0.9330 B( 33-C , 36-C ) :   1.0599 B( 36-C , 37-H ) :   0.9290
B( 36-C , 38-H ) :   0.9189 B( 36-C , 39-C ) :   1.0537 B( 39-C , 46-C ) :   1.0921
B( 42-C , 43-H ) :   0.9362 B( 42-C , 44-H ) :   0.9419 B( 42-C , 45-H ) :   0.9461
B( 46-C , 47-H ) :   0.9346 B( 46-C , 48-H ) :   0.9357 B( 46-C , 49-H ) :   0.9460

Dispersion correction           -0.125211334
FINAL SINGLE POINT ENERGY      -780.847709441860
Dispersion correction             ... done (  0.0 sec)

DIPOLE MOMENT
-------------

Method             : SCF
Type of density    : Electron Density
Multiplicity       :   2
Irrep              :   0
Energy             :  -780.7224981083440980 Eh
Basis              : AO
                                X                 Y                 Z
Electronic contribution:     -0.801745408      -0.527242847      -3.401962606
Nuclear contribution   :      0.832764696       0.482168217       3.570920735
                        -----------------------------------------
Total Dipole Moment    :      0.031019289      -0.045074630       0.168958130
                        -----------------------------------------
Magnitude (a.u.)       :      0.177597208
Magnitude (Debye)      :      0.451416227

Rotational constants in cm-1:             0.014366             0.010601             0.008905
Rotational constants in MHz :           430.679779           317.810629           266.959497

                             ****ORCA TERMINATED NORMALLY****
TOTAL RUN TIME: 0 days 0 hours 2 minutes 22 seconds 484 msec
