                         Program Version 6.1.0  -  RELEASE   -
|  1> ! B3LYP def2-SVP d3 EnGrad
|  2> %pal nprocs 6 end
|  3> *xyz 0 1
|  4> H   -1.26366087043912 -1.30394512668771 1.14769466818051
|  5> O   -0.99210505144091 -0.96612133746688 0.27989232390517
|  6> O   -3.34477184344676 0.18472806823482 -1.28446316376703
|  7> S   -2.82307369496485 0.9375209860799 -0.13988900870124
|  8> Cl   3.67097463477518 -0.77610093196303 0.08105728832105
|  9> Cl   1.59573593869648 -0.83885347044185 0.17902121913039
| 10> O   -3.39571217477474 0.6481457144899 1.17843107125667
| 11> H   -1.27187693840526 -1.64682990224515 -0.35169739832551
| 12> *
| 13>
| 14>                          ****END OF INPUT****

CARTESIAN COORDINATES (ANGSTROEM)
---------------------------------
  H     -1.263661   -1.303945    1.147695
  O     -0.992105   -0.966121    0.279892
  O     -3.344772    0.184728   -1.284463
  S     -2.823074    0.937521   -0.139889
  Cl     3.670975   -0.776101    0.081057
  Cl     1.595736   -0.838853    0.179021
  O     -3.395712    0.648146    1.178431
  H     -1.271877   -1.646830   -0.351697

 Total Charge           Charge          ....    0
 Multiplicity           Mult            ....    1
 Number of Electrons    NEL             ....   76
 Basis Dimension        Dim             ....  106

ORBITAL ENERGIES
----------------

  NO   OCC          E(Eh)            E(eV)
   0   2.0000    -101.538814     -2763.0116
   1   2.0000    -101.527296     -2762.6982
   2   2.0000     -89.025991     -2422.5204
   3   2.0000     -19.189323      -522.1680
   4   2.0000     -19.168077      -521.5899
   5   2.0000     -19.167926      -521.5858
   6   2.0000      -9.489564      -258.2242
   7   2.0000      -9.479671      -257.9550
   8   2.0000      -8.103529      -220.5082
   9   2.0000      -7.262873      -197.6328
  10   2.0000      -7.251940      -197.3353
  11   2.0000      -7.246742      -197.1939
  12   2.0000      -7.246707      -197.1929
  13   2.0000      -7.237279      -196.9364
  14   2.0000      -7.237271      -196.9362
  15   2.0000      -6.071937      -165.2258
  16   2.0000      -6.071289      -165.2082
  17   2.0000      -6.064588      -165.0258
  18   2.0000      -1.114474       -30.3264
  19   2.0000      -1.042667       -28.3724
  20   2.0000      -1.016091       -27.6492
  21   2.0000      -0.892083       -24.2748
  22   2.0000      -0.749708       -20.4006
  23   2.0000      -0.620644       -16.8886
  24   2.0000      -0.573868       -15.6157
  25   2.0000      -0.483627       -13.1602
  26   2.0000      -0.473397       -12.8818
  27   2.0000      -0.471249       -12.8233
  28   2.0000      -0.458001       -12.4628
  29   2.0000      -0.418077       -11.3764
  30   2.0000      -0.375025       -10.2049
  31   2.0000      -0.374931       -10.2024
  32   2.0000      -0.353609        -9.6222
  33   2.0000      -0.351715        -9.5706
  34   2.0000      -0.336340        -9.1523
  35   2.0000      -0.311682        -8.4813
  36   2.0000      -0.287398        -7.8205
  37   2.0000      -0.286817        -7.8047
  38   0.0000      -0.113949        -3.1007
  39   0.0000      -0.108952        -2.9647
  40   0.0000       0.020839         0.5671
  41   0.0000       0.087791         2.3889
  42   0.0000       0.091069         2.4781

MULLIKEN ATOMIC CHARGES
-----------------------
   0 H :    0.184322
   1 O :   -0.259558
   2 O :   -0.412236
   3 S :    0.772832
   4 Cl:   -0.052925
   5 Cl:   -0.002625
   6 O :   -0.414120
   7 H :    0.184309
Sum of atomic charges:   -0.0000000

LOEWDIN ATOMIC CHARGES
----------------------
   0 H :    0.091558
   1 O :   -0.100562
   2 O :   -0.434429
   3 S :    0.833694
   4 Cl:   -0.053484
   5 Cl:    0.007919
   6 O :   -0.436004
   7 H :    0.091307

  Mayer bond orders larger than 0.100000
B(  0-H ,  1-O ) :   0.9782 B(  1-O ,  7-H ) :   0.9781 B(  2-O ,  3-S ) :   1.7889
B(  2-O ,  6-O ) :   0.2132 B(  3-S ,  6-O ) :   1.7863 B(  4-Cl,  5-Cl) :   0.9851

Dispersion correction           -0.010031585
FINAL SINGLE POINT ENERGY     -1544.547370030885
Dispersion correction             ... done (  0.1 sec)

DIPOLE MOMENT
-------------

Method             : SCF
Type of density    : Electron Density
Multiplicity       :   1
Irrep              :   0
Energy             : -1544.5373384460813213 Eh
Basis              : AO
                                X                 Y                 Z
Electronic contribution:      9.570155105       0.451249485      -0.319452096
Nuclear contribution   :     -9.636168300      -0.797235799       0.447434978
                        -----------------------------------------
Total Dipole Moment    :     -0.066013195      -0.345986314       0.127982882
                        -----------------------------------------
Magnitude (a.u.)       :      0.374758441
Magnitude (Debye)      :      0.952560256

Rotational constants in cm-1:             0.196810             0.013014             0.012834
Rotational constants in MHz :          5900.227345           390.142058           384.749234

                             ****ORCA TERMINATED NORMALLY****
TOTAL RUN TIME: 0 days 0 hours 0 minutes 9 seconds 658 msec
