                         Program Version 6.1.0  -  RELEASE   -
|  1> ! B3LYP def2-SVP d3 EnGrad
|  2> %pal nprocs 6 end
|  3> *xyz 0 1
|  4> C   -1.05129299680808 -1.09240699010834 -0.02478911346724
|  5> C   -1.63596015971938 -0.00056716021651 -0.90352890141637
|  6> C   -1.60527580204701 0.93334068241557 0.06369819504419
|  7> C   -1.00960032017653 0.00029370226521 1.10288911028349
|  8> C   2.77870083597723 -0.26285305781937 0.25085707677326
|  9> C   2.28866279762294 0.60854736044063 -0.63221996163639
| 10> H   -1.96416277146476 0.00687706967382 -1.94711944654018
| 11> H   -1.71732465837167 -1.9475008036928 0.18238728296551
| 12> H   -0.06702147794977 -1.48424626347109 -0.33301865954239
| 13> H   3.84266570285454 -0.28673738538234 0.50856028551873
| 14> H   2.13530813189869 -0.98985535879886 0.75690376404313
| 15> H   1.22520614524203 0.6352203921882 -0.89058557240543
| 16> H   2.93381053056946 1.33502659911847 -1.13726529034901
| 17> H   -1.64443123238688 -0.21301676949396 1.97990466597552
| 18> H   0.00107802262211 0.26685159791249 1.45412159010907
| 19> H   -1.89882774786294 1.9864803849689 0.10277197464411
| 20> *
| 21>
| 22>                          ****END OF INPUT****

CARTESIAN COORDINATES (ANGSTROEM)
---------------------------------
  C     -1.051293   -1.092407   -0.024789
  C     -1.635960   -0.000567   -0.903529
  C     -1.605276    0.933341    0.063698
  C     -1.009600    0.000294    1.102889
  C      2.778701   -0.262853    0.250857
  C      2.288663    0.608547   -0.632220
  H     -1.964163    0.006877   -1.947119
  H     -1.717325   -1.947501    0.182387
  H     -0.067021   -1.484246   -0.333019
  H      3.842666   -0.286737    0.508560
  H      2.135308   -0.989855    0.756904
  H      1.225206    0.635220   -0.890586
  H      2.933811    1.335027   -1.137265
  H     -1.644431   -0.213017    1.979905
  H      0.001078    0.266852    1.454122
  H     -1.898828    1.986480    0.102772

 Total Charge           Charge          ....    0
 Multiplicity           Mult            ....    1
 Number of Electrons    NEL             ....   46
 Basis Dimension        Dim             ....  134

ORBITAL ENERGIES
----------------

  NO   OCC          E(Eh)            E(eV)
   0   2.0000     -10.186523      -277.1894
   1   2.0000     -10.185600      -277.1643
   2   2.0000     -10.185452      -277.1602
   3   2.0000     -10.184416      -277.1320
   4   2.0000     -10.184173      -277.1254
   5   2.0000     -10.183472      -277.1064
   6   2.0000      -0.847110       -23.0510
   7   2.0000      -0.746746       -20.3200
   8   2.0000      -0.645350       -17.5609
   9   2.0000      -0.633180       -17.2297
  10   2.0000      -0.567237       -15.4353
  11   2.0000      -0.505834       -13.7644
  12   2.0000      -0.495429       -13.4813
  13   2.0000      -0.469529       -12.7765
  14   2.0000      -0.446621       -12.1532
  15   2.0000      -0.415609       -11.3093
  16   2.0000      -0.381163       -10.3720
  17   2.0000      -0.358029        -9.7425
  18   2.0000      -0.350366        -9.5339
  19   2.0000      -0.328381        -8.9357
  20   2.0000      -0.318759        -8.6739
  21   2.0000      -0.271131        -7.3778
  22   2.0000      -0.250140        -6.8067
  23   0.0000       0.006604         0.1797
  24   0.0000       0.017942         0.4882
  25   0.0000       0.067096         1.8258
  26   0.0000       0.095342         2.5944
  27   0.0000       0.100115         2.7243

MULLIKEN ATOMIC CHARGES
-----------------------
   0 C :    0.049486
   1 C :   -0.078338
   2 C :   -0.079173
   3 C :    0.055096
   4 C :   -0.061399
   5 C :   -0.064913
   6 H :   -0.009766
   7 H :    0.016187
   8 H :    0.020085
   9 H :    0.025753
  10 H :    0.031406
  11 H :    0.042066
  12 H :    0.025995
  13 H :    0.015681
  14 H :    0.021439
  15 H :   -0.009607
Sum of atomic charges:   -0.0000000

LOEWDIN ATOMIC CHARGES
----------------------
   0 C :   -0.021410
   1 C :   -0.034275
   2 C :   -0.030322
   3 C :   -0.020601
   4 C :   -0.050850
   5 C :   -0.045274
   6 H :    0.011274
   7 H :    0.022335
   8 H :    0.020188
   9 H :    0.023330
  10 H :    0.020171
  11 H :    0.026066
  12 H :    0.024129
  13 H :    0.021772
  14 H :    0.021911
  15 H :    0.011557

  Mayer bond orders larger than 0.100000
B(  0-C ,  1-C ) :   1.0448 B(  0-C ,  3-C ) :   1.1224 B(  0-C ,  7-H ) :   0.9191
B(  0-C ,  8-H ) :   0.9180 B(  1-C ,  2-C ) :   1.7816 B(  1-C ,  6-H ) :   1.0236
B(  2-C ,  3-C ) :   1.0446 B(  2-C , 15-H ) :   1.0236 B(  3-C , 13-H ) :   0.9198
B(  3-C , 14-H ) :   0.9159 B(  4-C ,  5-C ) :   2.0710 B(  4-C ,  9-H ) :   0.9595
B(  4-C , 10-H ) :   0.9572 B(  5-C , 11-H ) :   0.9547 B(  5-C , 12-H ) :   0.9601

Dispersion correction           -0.019156187
FINAL SINGLE POINT ENERGY      -234.244772680417
Dispersion correction             ... done (  0.1 sec)

DIPOLE MOMENT
-------------

Method             : SCF
Type of density    : Electron Density
Multiplicity       :   1
Irrep              :   0
Energy             :  -234.2256164936807181 Eh
Basis              : AO
                                X                 Y                 Z
Electronic contribution:     -2.676195573       0.806056185      -0.724201557
Nuclear contribution   :      2.664701563      -0.824281867       0.753218110
                        -----------------------------------------
Total Dipole Moment    :     -0.011494010      -0.018225682       0.029016553
                        -----------------------------------------
Magnitude (a.u.)       :      0.036142055
Magnitude (Debye)      :      0.091865802

Rotational constants in cm-1:             0.195587             0.052089             0.049955
Rotational constants in MHz :          5863.564858          1561.595605          1497.617829

                             ****ORCA TERMINATED NORMALLY****
TOTAL RUN TIME: 0 days 0 hours 0 minutes 17 seconds 278 msec
