                         Program Version 6.1.0  -  RELEASE   -
|  1> ! B3LYP def2-SVP d3 EnGrad
|  2> %pal nprocs 6 end
|  3> *xyz 0 1
|  4> N   -0.05452248758838 1.21046354887409 0.59285864102778
|  5> B   1.32246769100406 0.76945777961901 0.29185422210683
|  6> N   -0.50682195309393 -1.4067901707648 -0.66802062544525
|  7> B   -1.4078298544398 -0.78578389582553 0.1452842520402
|  8> H   0.43147574420153 -1.01244241624191 -0.81747941062908
|  9> H   1.93766386708157 0.26803133447397 1.20945485896621
| 10> H   1.60915915261949 0.40462633281153 -0.85127359250456
| 11> H   -0.50740147103223 1.60007023365069 -0.24536325219044
| 12> H   1.39865418619358 2.06363802411974 0.30563862102516
| 13> H   -0.69068431076834 -2.26990648151829 -1.16862547436567
| 14> H   -2.54228148152996 -1.1085794955425 0.37664400653218
| 15> H   -0.98987908264761 0.26721520634401 0.82902775343665
| 16> *
| 17>
| 18>                          ****END OF INPUT****

CARTESIAN COORDINATES (ANGSTROEM)
---------------------------------
  N     -0.054522    1.210464    0.592859
  B      1.322468    0.769458    0.291854
  N     -0.506822   -1.406790   -0.668021
  B     -1.407830   -0.785784    0.145284
  H      0.431476   -1.012442   -0.817479
  H      1.937664    0.268031    1.209455
  H      1.609159    0.404626   -0.851274
  H     -0.507401    1.600070   -0.245363
  H      1.398654    2.063638    0.305639
  H     -0.690684   -2.269906   -1.168625
  H     -2.542281   -1.108579    0.376644
  H     -0.989879    0.267215    0.829028

 Total Charge           Charge          ....    0
 Multiplicity           Mult            ....    1
 Number of Electrons    NEL             ....   32
 Basis Dimension        Dim             ....   96

ORBITAL ENERGIES
----------------

  NO   OCC          E(Eh)            E(eV)
   0   2.0000     -14.366474      -390.9316
   1   2.0000     -14.358283      -390.7088
   2   2.0000      -6.793133      -184.8505
   3   2.0000      -6.714927      -182.7225
   4   2.0000      -0.887999       -24.1637
   5   2.0000      -0.842437       -22.9239
   6   2.0000      -0.562500       -15.3064
   7   2.0000      -0.540298       -14.7023
   8   2.0000      -0.514269       -13.9940
   9   2.0000      -0.465685       -12.6719
  10   2.0000      -0.413703       -11.2574
  11   2.0000      -0.375959       -10.2304
  12   2.0000      -0.335404        -9.1268
  13   2.0000      -0.327311        -8.9066
  14   2.0000      -0.292505        -7.9595
  15   2.0000      -0.257315        -7.0019
  16   0.0000      -0.079765        -2.1705
  17   0.0000      -0.018465        -0.5025
  18   0.0000       0.045901         1.2490
  19   0.0000       0.073610         2.0030
  20   0.0000       0.109770         2.9870

MULLIKEN ATOMIC CHARGES
-----------------------
   0 N :   -0.072494
   1 B :   -0.134741
   2 N :   -0.015430
   3 B :   -0.134312
   4 H :    0.126756
   5 H :   -0.045136
   6 H :   -0.089986
   7 H :    0.125623
   8 H :   -0.016217
   9 H :    0.136601
  10 H :    0.006599
  11 H :    0.112737
Sum of atomic charges:    0.0000000

LOEWDIN ATOMIC CHARGES
----------------------
   0 N :    0.057640
   1 B :   -0.358399
   2 N :    0.091588
   3 B :   -0.060830
   4 H :    0.097424
   5 H :   -0.044120
   6 H :   -0.057926
   7 H :    0.078586
   8 H :    0.079449
   9 H :    0.097070
  10 H :   -0.023512
  11 H :    0.043029

  Mayer bond orders larger than 0.100000
B(  0-N ,  1-B ) :   1.1267 B(  0-N ,  3-B ) :   0.2401 B(  0-N ,  7-H ) :   0.9577
B(  0-N ,  8-H ) :   0.2307 B(  0-N , 11-H ) :   0.4156 B(  1-B ,  5-H ) :   0.9691
B(  1-B ,  6-H ) :   0.8827 B(  1-B ,  8-H ) :   0.6273 B(  2-N ,  3-B ) :   1.7131
B(  2-N ,  4-H ) :   0.9068 B(  2-N ,  9-H ) :   0.9439 B(  3-B , 10-H ) :   0.9312
B(  3-B , 11-H ) :   0.5641

Dispersion correction           -0.012549972
FINAL SINGLE POINT ENERGY      -163.724128854361
Dispersion correction             ... done (  0.0 sec)

DIPOLE MOMENT
-------------

Method             : SCF
Type of density    : Electron Density
Multiplicity       :   1
Irrep              :   0
Energy             :  -163.7115788827447602 Eh
Basis              : AO
                                X                 Y                 Z
Electronic contribution:     -2.434846452      -1.249772552       0.144817686
Nuclear contribution   :      1.514608988       0.493004702      -1.014714494
                        -----------------------------------------
Total Dipole Moment    :     -0.920237464      -0.756767850      -0.869896807
                        -----------------------------------------
Magnitude (a.u.)       :      1.475213552
Magnitude (Debye)      :      3.749694856

Rotational constants in cm-1:             0.438418             0.141966             0.113530
Rotational constants in MHz :         13143.434109          4256.041284          3403.556780

                             ****ORCA TERMINATED NORMALLY****
TOTAL RUN TIME: 0 days 0 hours 0 minutes 7 seconds 918 msec
