                         Program Version 6.1.0  -  RELEASE   -
|  1> ! B3LYP def2-SVP d3 EnGrad
|  2> %pal nprocs 6 end
|  3> *xyz 0 1
|  4> N   0.71686839770402 -1.56388890651175 0.06820731398736
|  5> B   1.49570489819702 1.32036899911123 0.06472207446754
|  6> B   -1.66834925278205 -0.3818177119167 -0.04135868980269
|  7> N   -1.48990827480826 0.99996756502275 -0.173475764723
|  8> H   0.13485289921408 -2.39575040474673 0.17693482491981
|  9> H   1.34455055469393 -1.53161066102106 0.87283049395418
| 10> H   1.30133220492014 -1.71502580349894 -0.75506629653957
| 11> H   1.33579471541811 1.25181193953869 1.25630020307218
| 12> H   2.2860470181167 0.59523143995188 -0.48332166002198
| 13> H   1.00184868431591 2.22445476819566 -0.55932262679617
| 14> H   -1.82687232832696 -1.05021266081255 -1.03615891197743
| 15> H   -1.83076234397276 -0.84912456323238 1.06158189048156
| 16> H   -1.40140652714823 1.62861230218739 0.61571904826534
| 17> H   -1.39970064554163 1.46698369773247 -1.06759189928711
| 18> *
| 19>
| 20>                          ****END OF INPUT****

CARTESIAN COORDINATES (ANGSTROEM)
---------------------------------
  N      0.716868   -1.563889    0.068207
  B      1.495705    1.320369    0.064722
  B     -1.668349   -0.381818   -0.041359
  N     -1.489908    0.999968   -0.173476
  H      0.134853   -2.395750    0.176935
  H      1.344551   -1.531611    0.872830
  H      1.301332   -1.715026   -0.755066
  H      1.335795    1.251812    1.256300
  H      2.286047    0.595231   -0.483322
  H      1.001849    2.224455   -0.559323
  H     -1.826872   -1.050213   -1.036159
  H     -1.830762   -0.849125    1.061582
  H     -1.401407    1.628612    0.615719
  H     -1.399701    1.466984   -1.067592

 Total Charge           Charge          ....    0
 Multiplicity           Mult            ....    1
 Number of Electrons    NEL             ....   34
 Basis Dimension        Dim             ....  106

ORBITAL ENERGIES
----------------

  NO   OCC          E(Eh)            E(eV)
   0   2.0000     -14.318616      -389.6293
   1   2.0000     -14.309466      -389.3804
   2   2.0000      -6.768552      -184.1817
   3   2.0000      -6.731113      -183.1629
   4   2.0000      -0.847394       -23.0588
   5   2.0000      -0.836425       -22.7603
   6   2.0000      -0.504546       -13.7294
   7   2.0000      -0.494020       -13.4430
   8   2.0000      -0.490804       -13.3555
   9   2.0000      -0.466237       -12.6870
  10   2.0000      -0.464995       -12.6531
  11   2.0000      -0.371097       -10.0981
  12   2.0000      -0.336864        -9.1665
  13   2.0000      -0.336310        -9.1514
  14   2.0000      -0.298741        -8.1291
  15   2.0000      -0.297140        -8.0856
  16   2.0000      -0.254498        -6.9252
  17   0.0000      -0.044175        -1.2021
  18   0.0000       0.035535         0.9670
  19   0.0000       0.073076         1.9885
  20   0.0000       0.075200         2.0463
  21   0.0000       0.110557         3.0084

MULLIKEN ATOMIC CHARGES
-----------------------
   0 N :   -0.183678
   1 B :    0.040691
   2 B :   -0.006168
   3 N :   -0.076400
   4 H :    0.104994
   5 H :    0.103052
   6 H :    0.098966
   7 H :   -0.040662
   8 H :   -0.053506
   9 H :   -0.045755
  10 H :   -0.090322
  11 H :   -0.088742
  12 H :    0.121819
  13 H :    0.115710
Sum of atomic charges:   -0.0000000

LOEWDIN ATOMIC CHARGES
----------------------
   0 N :   -0.054394
   1 B :    0.024721
   2 B :   -0.147482
   3 N :    0.052967
   4 H :    0.070321
   5 H :    0.066299
   6 H :    0.063526
   7 H :   -0.036531
   8 H :   -0.042990
   9 H :   -0.042422
  10 H :   -0.055992
  11 H :   -0.055385
  12 H :    0.079780
  13 H :    0.077581

  Mayer bond orders larger than 0.100000
B(  0-N ,  2-B ) :   0.1564 B(  0-N ,  4-H ) :   0.9723 B(  0-N ,  5-H ) :   0.9796
B(  0-N ,  6-H ) :   0.9840 B(  1-B ,  7-H ) :   0.9908 B(  1-B ,  8-H ) :   0.9836
B(  1-B ,  9-H ) :   0.9858 B(  2-B ,  3-N ) :   1.4939 B(  2-B , 10-H ) :   0.9556
B(  2-B , 11-H ) :   0.9567 B(  3-N , 12-H ) :   0.9548 B(  3-N , 13-H ) :   0.9593

Dispersion correction           -0.013102411
FINAL SINGLE POINT ENERGY      -164.982133819331
Dispersion correction             ... done (  0.1 sec)

DIPOLE MOMENT
-------------

Method             : SCF
Type of density    : Electron Density
Multiplicity       :   1
Irrep              :   0
Energy             :  -164.9690314078475808 Eh
Basis              : AO
                                X                 Y                 Z
Electronic contribution:     -2.025553018       1.160462338      -0.227075373
Nuclear contribution   :      2.563007821      -1.310802910       0.208969603
                        -----------------------------------------
Total Dipole Moment    :      0.537454802      -0.150340572      -0.018105770
                        -----------------------------------------
Magnitude (a.u.)       :      0.558379594
Magnitude (Debye)      :      1.419288135

Rotational constants in cm-1:             0.172711             0.136642             0.081650
Rotational constants in MHz :          5177.742928          4096.412990          2447.814140

                             ****ORCA TERMINATED NORMALLY****
TOTAL RUN TIME: 0 days 0 hours 0 minutes 11 seconds 926 msec
