                         Program Version 6.1.0  -  RELEASE   -
|  1> ! B3LYP def2-SVP d3 EnGrad
|  2> %pal nprocs 6 end
|  3> *xyz 0 1
|  4> C   0.60620149277179 0.0736482099848 -0.01532329392804
|  5> H   0.15461794171877 1.00464656466133 -0.35666761670549
|  6> H   1.62876991853796 0.03300500782018 0.38446466569667
|  7> O   0.00869995947224 -1.05167756902183 -0.16340700566215
|  8> H   -0.96503215280754 -0.68508991856677 -0.23451023961574
|  9> H   -1.43325715969321 0.62546770512228 0.38544349021475
| 10> *
| 11>
| 12>                          ****END OF INPUT****

CARTESIAN COORDINATES (ANGSTROEM)
---------------------------------
  C      0.606201    0.073648   -0.015323
  H      0.154618    1.004647   -0.356668
  H      1.628770    0.033005    0.384465
  O      0.008700   -1.051678   -0.163407
  H     -0.965032   -0.685090   -0.234510
  H     -1.433257    0.625468    0.385443

 Total Charge           Charge          ....    0
 Multiplicity           Mult            ....    1
 Number of Electrons    NEL             ....   18
 Basis Dimension        Dim             ....   48

ORBITAL ENERGIES
----------------

  NO   OCC          E(Eh)            E(eV)
   0   2.0000     -19.218276      -522.9559
   1   2.0000     -10.325591      -280.9736
   2   2.0000      -1.114889       -30.3377
   3   2.0000      -0.690512       -18.7898
   4   2.0000      -0.586792       -15.9674
   5   2.0000      -0.514362       -13.9965
   6   2.0000      -0.458144       -12.4667
   7   2.0000      -0.390275       -10.6199
   8   2.0000      -0.193000        -5.2518
   9   0.0000      -0.108656        -2.9567
  10   0.0000       0.064878         1.7654
  11   0.0000       0.104418         2.8413
  12   0.0000       0.118637         3.2283
  13   0.0000       0.201752         5.4899

MULLIKEN ATOMIC CHARGES
-----------------------
   0 C :    0.163755
   1 H :    0.110362
   2 H :    0.076364
   3 O :   -0.108699
   4 H :    0.172065
   5 H :   -0.413847
Sum of atomic charges:    0.0000000

LOEWDIN ATOMIC CHARGES
----------------------
   0 C :    0.197871
   1 H :    0.023890
   2 H :    0.029870
   3 O :    0.026885
   4 H :    0.070482
   5 H :   -0.348999

  Mayer bond orders larger than 0.100000
B(  0-C ,  1-H ) :   0.9440 B(  0-C ,  2-H ) :   0.9495 B(  0-C ,  3-O ) :   1.4852
B(  0-C ,  5-H ) :   0.4174 B(  3-O ,  4-H ) :   0.7961 B(  4-H ,  5-H ) :   0.2495

Dispersion correction           -0.003759387
FINAL SINGLE POINT ENERGY      -115.407867685879
Dispersion correction             ... done (  0.0 sec)

DIPOLE MOMENT
-------------

Method             : SCF
Type of density    : Electron Density
Multiplicity       :   1
Irrep              :   0
Energy             :  -115.4041082985317246 Eh
Basis              : AO
                                X                 Y                 Z
Electronic contribution:      2.579439120      -2.755343890      -0.883267706
Nuclear contribution   :     -1.376354284       2.660458643       0.473115862
                        -----------------------------------------
Total Dipole Moment    :      1.203084836      -0.094885247      -0.410151844
                        -----------------------------------------
Magnitude (a.u.)       :      1.274614008
Magnitude (Debye)      :      3.239811336

Rotational constants in cm-1:             2.371201             1.092929             0.782103
Rotational constants in MHz :         71086.803661         32765.175531         23446.854020

                             ****ORCA TERMINATED NORMALLY****
TOTAL RUN TIME: 0 days 0 hours 0 minutes 5 seconds 670 msec
