                         Program Version 6.1.0  -  RELEASE   -
|  1> ! B3LYP def2-SVP d3 EnGrad
|  2> %pal nprocs 6 end
|  3> *xyz 0 1
|  4> C   -0.56460523374714 -0.32246912115878 1.1819990678779
|  5> O   1.16783380655193 -1.54543536549235 0.01433263747385
|  6> C   0.7326230173084 -0.47298478671698 0.37521571060504
|  7> F   -0.98295879962352 0.78660317908081 1.66299797065568
|  8> F   -1.51614900065309 -1.15107205700516 0.98134765893413
|  9> C   0.00469312665753 0.39775549986793 -0.99839088759465
| 10> F   1.5696936963979 0.53082210226265 0.87962358918735
| 11> F   1.02202642795076 0.52163782477695 -1.81985938838503
| 12> F   -0.94287445356892 -0.34981566705934 -1.55198845316698
| 13> F   -0.49028258727384 1.60495839144425 -0.72527790558726
| 14> *
| 15>
| 16>                          ****END OF INPUT****

CARTESIAN COORDINATES (ANGSTROEM)
---------------------------------
  C     -0.564605   -0.322469    1.181999
  O      1.167834   -1.545435    0.014333
  C      0.732623   -0.472985    0.375216
  F     -0.982959    0.786603    1.662998
  F     -1.516149   -1.151072    0.981348
  C      0.004693    0.397755   -0.998391
  F      1.569694    0.530822    0.879624
  F      1.022026    0.521638   -1.819859
  F     -0.942874   -0.349816   -1.551988
  F     -0.490283    1.604958   -0.725278

 Total Charge           Charge          ....    0
 Multiplicity           Mult            ....    1
 Number of Electrons    NEL             ....   80
 Basis Dimension        Dim             ....  140

ORBITAL ENERGIES
----------------

  NO   OCC          E(Eh)            E(eV)
   0   2.0000     -24.832366      -675.7230
   1   2.0000     -24.832044      -675.7143
   2   2.0000     -24.757982      -673.6989
   3   2.0000     -24.756735      -673.6650
   4   2.0000     -24.753464      -673.5760
   5   2.0000     -24.692531      -671.9179
   6   2.0000     -19.109672      -520.0006
   7   2.0000     -10.468611      -284.8654
   8   2.0000     -10.467142      -284.8254
   9   2.0000     -10.369146      -282.1588
  10   2.0000      -1.394538       -37.9473
  11   2.0000      -1.338817       -36.4311
  12   2.0000      -1.323953       -36.0266
  13   2.0000      -1.247373       -33.9427
  14   2.0000      -1.246167       -33.9099
  15   2.0000      -1.201207       -32.6865
  16   2.0000      -1.033004       -28.1095
  17   2.0000      -0.806808       -21.9544
  18   2.0000      -0.734471       -19.9860
  19   2.0000      -0.703322       -19.1384
  20   2.0000      -0.680922       -18.5288
  21   2.0000      -0.645233       -17.5577
  22   2.0000      -0.631649       -17.1880
  23   2.0000      -0.628514       -17.1027
  24   2.0000      -0.603060       -16.4101
  25   2.0000      -0.576973       -15.7002
  26   2.0000      -0.549603       -14.9555
  27   2.0000      -0.529332       -14.4039
  28   2.0000      -0.524554       -14.2738
  29   2.0000      -0.501915       -13.6578
  30   2.0000      -0.499481       -13.5916
  31   2.0000      -0.476892       -12.9769
  32   2.0000      -0.468252       -12.7418
  33   2.0000      -0.458426       -12.4744
  34   2.0000      -0.454514       -12.3679
  35   2.0000      -0.443423       -12.0662
  36   2.0000      -0.402208       -10.9446
  37   2.0000      -0.381375       -10.3777
  38   2.0000      -0.301474        -8.2035
  39   2.0000      -0.270642        -7.3645
  40   0.0000      -0.158830        -4.3220
  41   0.0000       0.065298         1.7768
  42   0.0000       0.090457         2.4614
  43   0.0000       0.105039         2.8582
  44   0.0000       0.170376         4.6362

MULLIKEN ATOMIC CHARGES
-----------------------
   0 C :    0.369131
   1 O :   -0.242675
   2 C :    0.135668
   3 F :   -0.030741
   4 F :   -0.032210
   5 C :    0.446238
   6 F :   -0.244893
   7 F :   -0.112282
   8 F :   -0.141845
   9 F :   -0.146391
Sum of atomic charges:    0.0000000

LOEWDIN ATOMIC CHARGES
----------------------
   0 C :    0.177071
   1 O :   -0.228923
   2 C :   -0.031091
   3 F :    0.082261
   4 F :    0.087296
   5 C :    0.126107
   6 F :   -0.136227
   7 F :    0.002577
   8 F :   -0.035270
   9 F :   -0.043800

  Mayer bond orders larger than 0.100000
B(  0-C ,  1-O ) :   0.1592 B(  0-C ,  2-C ) :   0.7284 B(  0-C ,  3-F ) :   1.2640
B(  0-C ,  4-F ) :   1.2714 B(  0-C ,  5-C ) :   0.1681 B(  1-O ,  2-C ) :   1.9725
B(  2-C ,  5-C ) :   0.6152 B(  2-C ,  6-F ) :   0.9237 B(  5-C ,  7-F ) :   1.1838
B(  5-C ,  8-F ) :   1.1250 B(  5-C ,  9-F ) :   1.1150

Dispersion correction           -0.013152419
FINAL SINGLE POINT ENERGY      -787.567776547515
Dispersion correction             ... done (  0.1 sec)

DIPOLE MOMENT
-------------

Method             : SCF
Type of density    : Electron Density
Multiplicity       :   1
Irrep              :   0
Energy             :  -787.5546241284348525 Eh
Basis              : AO
                                X                 Y                 Z
Electronic contribution:     -2.435576432       2.046938810       0.283644044
Nuclear contribution   :      1.102067209      -1.575653998       0.399430382
                        -----------------------------------------
Total Dipole Moment    :     -1.333509223       0.471284812       0.683074427
                        -----------------------------------------
Magnitude (a.u.)       :      1.570651741
Magnitude (Debye)      :      3.992279455

Rotational constants in cm-1:             0.056674             0.042718             0.039563
Rotational constants in MHz :          1699.044170          1280.642809          1186.059913

                             ****ORCA TERMINATED NORMALLY****
TOTAL RUN TIME: 0 days 0 hours 0 minutes 20 seconds 621 msec
