                         Program Version 6.1.0  -  RELEASE   -
|  1> ! B3LYP def2-SVP d3 EnGrad
|  2> %pal nprocs 6 end
|  3> *xyz 0 1
|  4> C   0.58882874859063 0.3859848894237 -9.20543e-07
|  5> H   0.09331541102301 1.39018478420362 -1.030275532e-05
|  6> H   1.70868403325802 0.40238667475471 9.09849709e-06
|  7> O   -0.03660113941198 -0.63978398471326 -1.31938284e-06
|  8> H   -2.29442381365327 0.20854232316009 -7.72808691e-06
|  9> H   -2.89264323980639 0.68220031317111 1.117227099e-05
| 10> *
| 11>
| 12>                          ****END OF INPUT****

CARTESIAN COORDINATES (ANGSTROEM)
---------------------------------
  C      0.588829    0.385985   -0.000001
  H      0.093315    1.390185   -0.000010
  H      1.708684    0.402387    0.000009
  O     -0.036601   -0.639784   -0.000001
  H     -2.294424    0.208542   -0.000008
  H     -2.892643    0.682200    0.000011

 Total Charge           Charge          ....    0
 Multiplicity           Mult            ....    1
 Number of Electrons    NEL             ....   18
 Basis Dimension        Dim             ....   48

ORBITAL ENERGIES
----------------

  NO   OCC          E(Eh)            E(eV)
   0   2.0000     -19.158064      -521.3174
   1   2.0000     -10.291572      -280.0479
   2   2.0000      -1.056258       -28.7422
   3   2.0000      -0.627547       -17.0764
   4   2.0000      -0.499254       -13.5854
   5   2.0000      -0.456179       -12.4133
   6   2.0000      -0.408401       -11.1131
   7   2.0000      -0.405164       -11.0251
   8   2.0000      -0.274232        -7.4622
   9   0.0000      -0.048490        -1.3195
  10   0.0000       0.068521         1.8645
  11   0.0000       0.098655         2.6845
  12   0.0000       0.133924         3.6443
  13   0.0000       0.207350         5.6423

MULLIKEN ATOMIC CHARGES
-----------------------
   0 C :    0.172454
   1 H :    0.021899
   2 H :    0.027426
   3 O :   -0.199068
   4 H :    0.026886
   5 H :   -0.049597
Sum of atomic charges:   -0.0000000

LOEWDIN ATOMIC CHARGES
----------------------
   0 C :    0.140702
   1 H :   -0.008402
   2 H :   -0.005861
   3 O :   -0.108363
   4 H :    0.005398
   5 H :   -0.023475

  Mayer bond orders larger than 0.100000
B(  0-C ,  1-H ) :   0.9124 B(  0-C ,  2-H ) :   0.9180 B(  0-C ,  3-O ) :   2.1136
B(  4-H ,  5-H ) :   0.9771

Dispersion correction           -0.002880083
FINAL SINGLE POINT ENERGY      -115.528852617427
Dispersion correction             ... done (  0.1 sec)

DIPOLE MOMENT
-------------

Method             : SCF
Type of density    : Electron Density
Multiplicity       :   1
Irrep              :   0
Energy             :  -115.5259725341660015 Eh
Basis              : AO
                                X                 Y                 Z
Electronic contribution:      4.101452013      -2.167901656      -0.000006093
Nuclear contribution   :     -3.537853901       2.848360759       0.000005598
                        -----------------------------------------
Total Dipole Moment    :      0.563598113       0.680459103      -0.000000495
                        -----------------------------------------
Magnitude (a.u.)       :      0.883553860
Magnitude (Debye)      :      2.245815434

Rotational constants in cm-1:             1.620108             0.807395             0.538853
Rotational constants in MHz :         48569.612419         24205.104891         16154.409204

                             ****ORCA TERMINATED NORMALLY****
TOTAL RUN TIME: 0 days 0 hours 0 minutes 5 seconds 478 msec
