                         Program Version 6.1.0  -  RELEASE   -
|  1> ! B3LYP def2-SVP d3 EnGrad
|  2> %pal nprocs 6 end
|  3> *xyz 0 1
|  4> N   1.0717722578567 -1.2397186881378 0.98955056129583
|  5> B   1.40306054139699 1.20272428130278 -0.86347156114859
|  6> B   -2.20322347656906 -0.0961312372588 -0.56941322161625
|  7> N   -1.35914464985394 0.43116983123175 0.39843311459785
|  8> H   0.67330284540918 -1.99658385824277 1.5487765942246
|  9> H   1.92778610116012 -0.94086295936638 1.45902255789435
| 10> H   1.36040967332089 -1.65606785470657 0.10241387325456
| 11> H   1.01839706516716 2.17625744885017 -0.26886616249003
| 12> H   2.41883531604079 0.65555346121109 -0.51211712299457
| 13> H   0.83928565272291 0.83735056693511 -1.86073257054164
| 14> H   -3.17190516120341 0.52896577799707 -0.93725906338891
| 15> H   -1.9518862650974 -1.18817208802177 -1.03027930628416
| 16> H   -0.52142042655621 -0.0596275758895 0.73110648429549
| 17> H   -1.50526947379472 1.34514289409563 0.81283582290145
| 18> *
| 19>
| 20>                          ****END OF INPUT****

CARTESIAN COORDINATES (ANGSTROEM)
---------------------------------
  N      1.071772   -1.239719    0.989551
  B      1.403061    1.202724   -0.863472
  B     -2.203223   -0.096131   -0.569413
  N     -1.359145    0.431170    0.398433
  H      0.673303   -1.996584    1.548777
  H      1.927786   -0.940863    1.459023
  H      1.360410   -1.656068    0.102414
  H      1.018397    2.176257   -0.268866
  H      2.418835    0.655553   -0.512117
  H      0.839286    0.837351   -1.860733
  H     -3.171905    0.528966   -0.937259
  H     -1.951886   -1.188172   -1.030279
  H     -0.521420   -0.059628    0.731106
  H     -1.505269    1.345143    0.812836

 Total Charge           Charge          ....    0
 Multiplicity           Mult            ....    1
 Number of Electrons    NEL             ....   34
 Basis Dimension        Dim             ....  106

ORBITAL ENERGIES
----------------

  NO   OCC          E(Eh)            E(eV)
   0   2.0000     -14.337040      -390.1307
   1   2.0000     -14.303339      -389.2136
   2   2.0000      -6.771734      -184.2682
   3   2.0000      -6.724518      -182.9834
   4   2.0000      -0.865881       -23.5618
   5   2.0000      -0.829458       -22.5707
   6   2.0000      -0.502151       -13.6642
   7   2.0000      -0.496121       -13.5001
   8   2.0000      -0.490602       -13.3500
   9   2.0000      -0.480816       -13.0837
  10   2.0000      -0.476473       -12.9655
  11   2.0000      -0.370101       -10.0710
  12   2.0000      -0.341504        -9.2928
  13   2.0000      -0.338963        -9.2236
  14   2.0000      -0.304700        -8.2913
  15   2.0000      -0.285574        -7.7709
  16   2.0000      -0.277572        -7.5531
  17   0.0000      -0.054000        -1.4694
  18   0.0000       0.028041         0.7630
  19   0.0000       0.039695         1.0802
  20   0.0000       0.091674         2.4946
  21   0.0000       0.108975         2.9654

MULLIKEN ATOMIC CHARGES
-----------------------
   0 N :   -0.219101
   1 B :    0.014313
   2 B :   -0.068487
   3 N :   -0.061540
   4 H :    0.106085
   5 H :    0.109834
   6 H :    0.118666
   7 H :   -0.030119
   8 H :   -0.056013
   9 H :   -0.007645
  10 H :   -0.059298
  11 H :   -0.073543
  12 H :    0.115253
  13 H :    0.111594
Sum of atomic charges:   -0.0000000

LOEWDIN ATOMIC CHARGES
----------------------
   0 N :   -0.082246
   1 B :    0.035363
   2 B :   -0.137996
   3 N :    0.063660
   4 H :    0.067811
   5 H :    0.067427
   6 H :    0.072006
   7 H :   -0.035686
   8 H :   -0.046103
   9 H :   -0.028914
  10 H :   -0.050613
  11 H :   -0.053325
  12 H :    0.051449
  13 H :    0.077167

  Mayer bond orders larger than 0.100000
B(  0-N ,  4-H ) :   0.9778 B(  0-N ,  5-H ) :   0.9836 B(  0-N ,  6-H ) :   0.9801
B(  0-N , 12-H ) :   0.1387 B(  1-B ,  7-H ) :   0.9923 B(  1-B ,  8-H ) :   0.9746
B(  1-B ,  9-H ) :   0.9928 B(  2-B ,  3-N ) :   1.6055 B(  2-B , 10-H ) :   0.9687
B(  2-B , 11-H ) :   0.9645 B(  3-N , 12-H ) :   0.8942 B(  3-N , 13-H ) :   0.9568

Dispersion correction           -0.012121547
FINAL SINGLE POINT ENERGY      -164.987471242801
Dispersion correction             ... done (  0.0 sec)

DIPOLE MOMENT
-------------

Method             : SCF
Type of density    : Electron Density
Multiplicity       :   1
Irrep              :   0
Energy             :  -164.9753496959093582 Eh
Basis              : AO
                                X                 Y                 Z
Electronic contribution:     -2.057254521       0.698281398       0.293292948
Nuclear contribution   :      3.151744436      -1.165047682       0.605465169
                        -----------------------------------------
Total Dipole Moment    :      1.094489915      -0.466766284       0.898758117
                        -----------------------------------------
Magnitude (a.u.)       :      1.491155623
Magnitude (Debye)      :      3.790216380

Rotational constants in cm-1:             0.182351             0.103659             0.075267
Rotational constants in MHz :          5466.758517          3107.619441          2256.447832

                             ****ORCA TERMINATED NORMALLY****
TOTAL RUN TIME: 0 days 0 hours 0 minutes 11 seconds 540 msec
