                         Program Version 6.1.0  -  RELEASE   -
|  1> ! B3LYP def2-SVP d3 EnGrad
|  2> %pal nprocs 6 end
|  3> *xyz 0 1
|  4> N   1.2547541584091 -0.26607967937561 0.78601693045588
|  5> B   1.29869713551811 0.03188714425505 -0.72594907892834
|  6> B   -1.27099684359709 0.30648927535368 -0.7088804489946
|  7> N   -1.28440050356687 -0.1024368472529 0.77764564745536
|  8> H   -0.0198792405757 -0.23485357894087 0.99917286595066
|  9> H   1.72489345561453 0.43440026773591 1.35834823132849
| 10> H   1.63120473178194 -1.17986298987871 1.03574868212541
| 11> H   1.80325787671357 1.09772098119485 -1.00914899602948
| 12> H   1.58964573546798 -0.93057427028746 -1.40488878359354
| 13> H   0.01841766358724 0.24020599914582 -1.11760524937613
| 14> H   -1.51903908105542 1.4797928921612 -0.89191432954712
| 15> H   -1.78045836527799 -0.50353154797207 -1.45391365146376
| 16> H   -1.76885902067449 -0.98064235928665 0.96068701880131
| 17> H   -1.67723770234491 0.60748471314773 1.39468116181588
| 18> *
| 19>
| 20>                          ****END OF INPUT****

CARTESIAN COORDINATES (ANGSTROEM)
---------------------------------
  N      1.254754   -0.266080    0.786017
  B      1.298697    0.031887   -0.725949
  B     -1.270997    0.306489   -0.708880
  N     -1.284401   -0.102437    0.777646
  H     -0.019879   -0.234854    0.999173
  H      1.724893    0.434400    1.358348
  H      1.631205   -1.179863    1.035749
  H      1.803258    1.097721   -1.009149
  H      1.589646   -0.930574   -1.404889
  H      0.018418    0.240206   -1.117605
  H     -1.519039    1.479793   -0.891914
  H     -1.780458   -0.503532   -1.453914
  H     -1.768859   -0.980642    0.960687
  H     -1.677238    0.607485    1.394681

 Total Charge           Charge          ....    0
 Multiplicity           Mult            ....    1
 Number of Electrons    NEL             ....   34
 Basis Dimension        Dim             ....  106

ORBITAL ENERGIES
----------------

  NO   OCC          E(Eh)            E(eV)
   0   2.0000     -14.344150      -390.3242
   1   2.0000     -14.343804      -390.3147
   2   2.0000      -6.727546      -183.0658
   3   2.0000      -6.727503      -183.0647
   4   2.0000      -0.894108       -24.3299
   5   2.0000      -0.860568       -23.4173
   6   2.0000      -0.556699       -15.1486
   7   2.0000      -0.515557       -14.0290
   8   2.0000      -0.504810       -13.7366
   9   2.0000      -0.496096       -13.4995
  10   2.0000      -0.484015       -13.1707
  11   2.0000      -0.392832       -10.6895
  12   2.0000      -0.367368        -9.9966
  13   2.0000      -0.302972        -8.2443
  14   2.0000      -0.288652        -7.8546
  15   2.0000      -0.287452        -7.8220
  16   2.0000      -0.285686        -7.7739
  17   0.0000       0.028634         0.7792
  18   0.0000       0.048737         1.3262
  19   0.0000       0.063112         1.7174
  20   0.0000       0.088123         2.3979
  21   0.0000       0.107891         2.9359

MULLIKEN ATOMIC CHARGES
-----------------------
   0 N :   -0.102184
   1 B :   -0.172913
   2 B :   -0.172763
   3 N :   -0.101034
   4 H :    0.140545
   5 H :    0.127174
   6 H :    0.127605
   7 H :   -0.053837
   8 H :   -0.055679
   9 H :    0.117699
  10 H :   -0.056858
  11 H :   -0.052839
  12 H :    0.127152
  13 H :    0.127933
Sum of atomic charges:    0.0000000

LOEWDIN ATOMIC CHARGES
----------------------
   0 N :    0.086031
   1 B :   -0.222930
   2 B :   -0.223134
   3 N :    0.087143
   4 H :    0.057821
   5 H :    0.084214
   6 H :    0.084364
   7 H :   -0.042179
   8 H :   -0.042588
   9 H :    0.047102
  10 H :   -0.042556
  11 H :   -0.042157
  12 H :    0.084183
  13 H :    0.084684

  Mayer bond orders larger than 0.100000
B(  0-N ,  1-B ) :   0.9979 B(  0-N ,  4-H ) :   0.5253 B(  0-N ,  5-H ) :   0.9647
B(  0-N ,  6-H ) :   0.9646 B(  1-B ,  2-B ) :   0.2755 B(  1-B ,  7-H ) :   0.9692
B(  1-B ,  8-H ) :   0.9685 B(  1-B ,  9-H ) :   0.4756 B(  2-B ,  3-N ) :   0.9975
B(  2-B ,  9-H ) :   0.4766 B(  2-B , 10-H ) :   0.9693 B(  2-B , 11-H ) :   0.9680
B(  3-N ,  4-H ) :   0.5273 B(  3-N , 12-H ) :   0.9647 B(  3-N , 13-H ) :   0.9644

Dispersion correction           -0.015592538
FINAL SINGLE POINT ENERGY      -165.028889714274
Dispersion correction             ... done (  0.1 sec)

DIPOLE MOMENT
-------------

Method             : SCF
Type of density    : Electron Density
Multiplicity       :   1
Irrep              :   0
Energy             :  -165.0132971758767155 Eh
Basis              : AO
                                X                 Y                 Z
Electronic contribution:     -0.039366145      -0.477879220       2.013744578
Nuclear contribution   :     -0.004252454      -0.035082897       0.146038530
                        -----------------------------------------
Total Dipole Moment    :     -0.043618598      -0.512962117       2.159783108
                        -----------------------------------------
Magnitude (a.u.)       :      2.220291826
Magnitude (Debye)      :      5.643533322

Rotational constants in cm-1:             0.332430             0.150957             0.113823
Rotational constants in MHz :          9966.010970          4525.566029          3412.324290

                             ****ORCA TERMINATED NORMALLY****
TOTAL RUN TIME: 0 days 0 hours 0 minutes 12 seconds 910 msec
