                         Program Version 6.1.0  -  RELEASE   -
|  1> ! B3LYP def2-SVP d3 EnGrad
|  2> %pal nprocs 6 end
|  3> *xyz 0 1
|  4> C   1.85153800992587 -0.11294324606001 -0.04861725313877
|  5> C   0.50180380899018 0.51807560988626 0.0239382381545
|  6> N   -0.61203066897267 -0.20250174521172 -0.11081254330925
|  7> C   -1.91847227920585 0.09546767523938 -0.09121739563283
|  8> H   0.37601098343355 1.59053557110295 0.18715412047506
|  9> H   2.47403193483888 0.29020517467256 -0.8718036088059
| 10> H   2.4423762159401 0.02204601037983 0.87880057172892
| 11> H   1.77047978437215 -1.20214340273984 -0.21644826356467
| 12> H   -2.63113547845191 -0.71200731667585 -0.23040664885155
| 13> H   -2.22548700556908 1.12863196739784 0.06137802396072
| 14> H   -0.42661330530124 -1.1957572979914 -0.26133424101621
| 15> *
| 16>
| 17>                          ****END OF INPUT****

CARTESIAN COORDINATES (ANGSTROEM)
---------------------------------
  C      1.851538   -0.112943   -0.048617
  C      0.501804    0.518076    0.023938
  N     -0.612031   -0.202502   -0.110813
  C     -1.918472    0.095468   -0.091217
  H      0.376011    1.590536    0.187154
  H      2.474032    0.290205   -0.871804
  H      2.442376    0.022046    0.878801
  H      1.770480   -1.202143   -0.216448
  H     -2.631135   -0.712007   -0.230407
  H     -2.225487    1.128632    0.061378
  H     -0.426613   -1.195757   -0.261334

 Total Charge           Charge          ....    0
 Multiplicity           Mult            ....    1
 Number of Electrons    NEL             ....   32
 Basis Dimension        Dim             ....   91

ORBITAL ENERGIES
----------------

  NO   OCC          E(Eh)            E(eV)
   0   2.0000     -14.401577      -391.8868
   1   2.0000     -10.187659      -277.2203
   2   2.0000     -10.184866      -277.1443
   3   2.0000     -10.172969      -276.8206
   4   2.0000      -0.955639       -26.0042
   5   2.0000      -0.742956       -20.2168
   6   2.0000      -0.654987       -17.8231
   7   2.0000      -0.606370       -16.5002
   8   2.0000      -0.490208       -13.3392
   9   2.0000      -0.475604       -12.9418
  10   2.0000      -0.416398       -11.3308
  11   2.0000      -0.393425       -10.7056
  12   2.0000      -0.382777       -10.4159
  13   2.0000      -0.368272       -10.0212
  14   2.0000      -0.366332        -9.9684
  15   2.0000      -0.145411        -3.9568
  16   0.0000       0.012522         0.3407
  17   0.0000       0.044872         1.2210
  18   0.0000       0.084611         2.3024
  19   0.0000       0.097698         2.6585
  20   0.0000       0.140153         3.8138

MULLIKEN ATOMIC CHARGES
-----------------------
   0 C :    0.048965
   1 C :   -0.165486
   2 N :    0.070937
   3 C :   -0.159311
   4 H :    0.002394
   5 H :    0.021690
   6 H :    0.021647
   7 H :   -0.010209
   8 H :    0.020161
   9 H :    0.023553
  10 H :    0.125658
Sum of atomic charges:    0.0000000

LOEWDIN ATOMIC CHARGES
----------------------
   0 C :   -0.065401
   1 C :   -0.133184
   2 N :    0.192423
   3 C :   -0.191671
   4 H :    0.011262
   5 H :    0.024791
   6 H :    0.024889
   7 H :    0.021561
   8 H :    0.006390
   9 H :    0.008158
  10 H :    0.100783

  Mayer bond orders larger than 0.100000
B(  0-C ,  1-C ) :   1.0895 B(  0-C ,  5-H ) :   0.9536 B(  0-C ,  6-H ) :   0.9537
B(  0-C ,  7-H ) :   0.9615 B(  1-C ,  2-N ) :   1.4194 B(  1-C ,  3-C ) :   0.4045
B(  1-C ,  4-H ) :   0.9721 B(  2-N ,  3-C ) :   1.3803 B(  2-N , 10-H ) :   0.9282
B(  3-C ,  8-H ) :   0.9747 B(  3-C ,  9-H ) :   0.9759

Dispersion correction           -0.010957632
FINAL SINGLE POINT ENERGY      -172.978787685218
Dispersion correction             ... done (  0.0 sec)

DIPOLE MOMENT
-------------

Method             : SCF
Type of density    : Electron Density
Multiplicity       :   1
Irrep              :   0
Energy             :  -172.9678300533238939 Eh
Basis              : AO
                                X                 Y                 Z
Electronic contribution:     -1.562873244      -0.017988497      -0.031324861
Nuclear contribution   :      1.845343759      -0.431287445      -0.033832654
                        -----------------------------------------
Total Dipole Moment    :      0.282470515      -0.449275942      -0.065157515
                        -----------------------------------------
Magnitude (a.u.)       :      0.534681181
Magnitude (Debye)      :      1.359051558

Rotational constants in cm-1:             1.293560             0.137188             0.126989
Rotational constants in MHz :         38779.949331          4112.804736          3807.035471

                             ****ORCA TERMINATED NORMALLY****
TOTAL RUN TIME: 0 days 0 hours 0 minutes 10 seconds 654 msec
