                         Program Version 6.1.0  -  RELEASE   -
|  1> ! B3LYP def2-SVP d3 EnGrad
|  2> %pal nprocs 6 end
|  3> *xyz 0 1
|  4> C   0.38808805414622 0.40593986030064 0.22037685330488
|  5> C   1.47508220521245 1.26528543952471 0.01049927522596
|  6> C   2.75720399735279 0.75771191212704 -0.22398608455656
|  7> C   2.96763374262201 -0.62272442072424 -0.2555392615528
|  8> C   1.88848437998392 -1.49003666771166 -0.05327868514254
|  9> C   0.61008877983736 -0.98133318430125 0.18267438047436
| 10> O   -2.51541997130938 -0.8456157412823 -0.38862183613204
| 11> C   -1.00112032501599 0.94811794813954 0.481965802377
| 12> C   -2.02422621587052 0.4851335404475 -0.53277080771653
| 13> C   -3.42367753236871 0.22657469895397 -0.16614942401942
| 14> H   1.31692965817546 2.34776202242799 0.03373023737957
| 15> H   3.59293960590978 1.44426917443889 -0.38330376686122
| 16> H   3.96837866993769 -1.02283343719101 -0.43771347780708
| 17> H   2.04454622587306 -2.57191395904772 -0.07775719029012
| 18> H   -0.23369227404477 -1.65825645360708 0.33375002629041
| 19> H   -1.34373286240362 0.63511419924089 1.4834045474322
| 20> H   -1.8045405276649 0.76826306910375 -1.57299905474277
| 21> H   -4.21872911483304 0.34105375764218 -0.91508441381488
| 22> H   -3.74173341375736 0.37437396871386 0.87540240005075
| 23> H   -0.97683108178243 2.05080227280429 0.47913448010081
| 24> *
| 25>
| 26>                          ****END OF INPUT****

CARTESIAN COORDINATES (ANGSTROEM)
---------------------------------
  C      0.388088    0.405940    0.220377
  C      1.475082    1.265285    0.010499
  C      2.757204    0.757712   -0.223986
  C      2.967634   -0.622724   -0.255539
  C      1.888484   -1.490037   -0.053279
  C      0.610089   -0.981333    0.182674
  O     -2.515420   -0.845616   -0.388622
  C     -1.001120    0.948118    0.481966
  C     -2.024226    0.485134   -0.532771
  C     -3.423678    0.226575   -0.166149
  H      1.316930    2.347762    0.033730
  H      3.592940    1.444269   -0.383304
  H      3.968379   -1.022833   -0.437713
  H      2.044546   -2.571914   -0.077757
  H     -0.233692   -1.658256    0.333750
  H     -1.343733    0.635114    1.483405
  H     -1.804541    0.768263   -1.572999
  H     -4.218729    0.341054   -0.915084
  H     -3.741733    0.374374    0.875402
  H     -0.976831    2.050802    0.479134

 Total Charge           Charge          ....    0
 Multiplicity           Mult            ....    1
 Number of Electrons    NEL             ....   72
 Basis Dimension        Dim             ....  190

ORBITAL ENERGIES
----------------

  NO   OCC          E(Eh)            E(eV)
   0   2.0000     -19.141371      -520.8632
   1   2.0000     -10.241414      -278.6831
   2   2.0000     -10.238007      -278.5903
   3   2.0000     -10.194591      -277.4089
   4   2.0000     -10.191346      -277.3206
   5   2.0000     -10.185735      -277.1679
   6   2.0000     -10.184817      -277.1430
   7   2.0000     -10.184444      -277.1328
   8   2.0000     -10.184067      -277.1226
   9   2.0000     -10.180051      -277.0133
  10   2.0000      -1.067832       -29.0572
  11   2.0000      -0.845117       -22.9968
  12   2.0000      -0.774426       -21.0732
  13   2.0000      -0.731150       -19.8956
  14   2.0000      -0.703750       -19.1500
  15   2.0000      -0.651019       -17.7151
  16   2.0000      -0.603595       -16.4246
  17   2.0000      -0.593925       -16.1615
  18   2.0000      -0.570582       -15.5263
  19   2.0000      -0.515114       -14.0170
  20   2.0000      -0.496304       -13.5051
  21   2.0000      -0.477123       -12.9832
  22   2.0000      -0.457030       -12.4364
  23   2.0000      -0.444248       -12.0886
  24   2.0000      -0.419797       -11.4232
  25   2.0000      -0.412145       -11.2150
  26   2.0000      -0.406412       -11.0590
  27   2.0000      -0.382909       -10.4195
  28   2.0000      -0.374226       -10.1832
  29   2.0000      -0.353789        -9.6271
  30   2.0000      -0.347931        -9.4677
  31   2.0000      -0.335643        -9.1333
  32   2.0000      -0.303131        -8.2486
  33   2.0000      -0.272223        -7.4076
  34   2.0000      -0.250103        -6.8057
  35   2.0000      -0.242580        -6.6009
  36   0.0000      -0.006526        -0.1776
  37   0.0000      -0.003387        -0.0922
  38   0.0000       0.065680         1.7872
  39   0.0000       0.074591         2.0297
  40   0.0000       0.085953         2.3389

MULLIKEN ATOMIC CHARGES
-----------------------
   0 C :   -0.052547
   1 C :   -0.019203
   2 C :    0.021349
   3 C :    0.020794
   4 C :    0.023161
   5 C :   -0.002283
   6 O :   -0.331294
   7 C :    0.219774
   8 C :    0.006050
   9 C :    0.164662
  10 H :   -0.034036
  11 H :   -0.020593
  12 H :   -0.018900
  13 H :   -0.018008
  14 H :   -0.009135
  15 H :   -0.002564
  16 H :    0.014137
  17 H :    0.025432
  18 H :    0.019372
  19 H :   -0.006169
Sum of atomic charges:    0.0000000

LOEWDIN ATOMIC CHARGES
----------------------
   0 C :   -0.026133
   1 C :   -0.033109
   2 C :   -0.025971
   3 C :   -0.029930
   4 C :   -0.022578
   5 C :   -0.019848
   6 O :   -0.185841
   7 C :   -0.026712
   8 C :    0.059580
   9 C :    0.068350
  10 H :    0.021646
  11 H :    0.025725
  12 H :    0.025410
  13 H :    0.026666
  14 H :    0.028879
  15 H :    0.036085
  16 H :    0.016805
  17 H :    0.016181
  18 H :    0.013649
  19 H :    0.031147

  Mayer bond orders larger than 0.100000
B(  0-C ,  1-C ) :   1.4010 B(  0-C ,  5-C ) :   1.3862 B(  0-C ,  7-C ) :   1.0458
B(  1-C ,  2-C ) :   1.3752 B(  1-C , 10-H ) :   0.9831 B(  2-C ,  3-C ) :   1.3932
B(  2-C , 11-H ) :   0.9820 B(  3-C ,  4-C ) :   1.3739 B(  3-C , 12-H ) :   0.9849
B(  4-C ,  5-C ) :   1.3862 B(  4-C , 13-H ) :   0.9838 B(  5-C , 14-H ) :   0.9839
B(  6-O ,  8-C ) :   0.9292 B(  6-O ,  9-C ) :   0.9964 B(  7-C ,  8-C ) :   1.0404
B(  7-C , 15-H ) :   0.8949 B(  7-C , 19-H ) :   0.9159 B(  8-C ,  9-C ) :   1.0716
B(  8-C , 16-H ) :   0.9444 B(  9-C , 17-H ) :   0.9438 B(  9-C , 18-H ) :   0.9349

Dispersion correction           -0.034057325
FINAL SINGLE POINT ENERGY      -423.621925232822
Dispersion correction             ... done (  0.0 sec)

DIPOLE MOMENT
-------------

Method             : SCF
Type of density    : Electron Density
Multiplicity       :   1
Irrep              :   0
Energy             :  -423.5878679074589854 Eh
Basis              : AO
                                X                 Y                 Z
Electronic contribution:      1.300695595      -1.772895246      -0.488827067
Nuclear contribution   :     -1.490114137       2.448257239       0.555056791
                        -----------------------------------------
Total Dipole Moment    :     -0.189418542       0.675361993       0.066229724
                        -----------------------------------------
Magnitude (a.u.)       :      0.704542108
Magnitude (Debye)      :      1.790803720

Rotational constants in cm-1:             0.123144             0.025300             0.021900
Rotational constants in MHz :          3691.770498           758.483786           656.535907

                             ****ORCA TERMINATED NORMALLY****
TOTAL RUN TIME: 0 days 0 hours 0 minutes 33 seconds 371 msec
