                         Program Version 6.1.0  -  RELEASE   -
|  1> ! B3LYP def2-SVP d3 EnGrad
|  2> %pal nprocs 6 end
|  3> *xyz 0 1
|  4> H   -0.34720575680698 1.97694398016 -1.60457858536777
|  5> C   -0.62800003131564 1.29368060062495 -0.79679396803753
|  6> C   0.24623411201498 0.42663421338721 -0.25088948085328
|  7> H   -1.65318098530179 1.32155864021107 -0.42145343502381
|  8> H   0.28866276205175 0.10507153106459 1.01871645211961
|  9> O   1.53488672630752 0.25935542568311 -0.60570028288133
| 10> H   1.88897443599477 -0.38191321206116 0.05251701260958
| 11> O   0.62729626995572 -1.21086632309947 1.49872629894714
| 12> C   -0.30456484812914 -1.10971661462212 0.5599635125609
| 13> H   -1.34892504413432 -0.84544220657482 0.8398558712472
| 14> H   -0.30417764063688 -1.83530603477337 -0.2903633953207
| 15> *
| 16>
| 17>                          ****END OF INPUT****

CARTESIAN COORDINATES (ANGSTROEM)
---------------------------------
  H     -0.347206    1.976944   -1.604579
  C     -0.628000    1.293681   -0.796794
  C      0.246234    0.426634   -0.250889
  H     -1.653181    1.321559   -0.421453
  H      0.288663    0.105072    1.018716
  O      1.534887    0.259355   -0.605700
  H      1.888974   -0.381913    0.052517
  O      0.627296   -1.210866    1.498726
  C     -0.304565   -1.109717    0.559964
  H     -1.348925   -0.845442    0.839856
  H     -0.304178   -1.835306   -0.290363

 Total Charge           Charge          ....    0
 Multiplicity           Mult            ....    1
 Number of Electrons    NEL             ....   40
 Basis Dimension        Dim             ....  100

ORBITAL ENERGIES
----------------

  NO   OCC          E(Eh)            E(eV)
   0   2.0000     -19.172891      -521.7209
   1   2.0000     -19.087790      -519.4052
   2   2.0000     -10.292223      -280.0656
   3   2.0000     -10.262637      -279.2606
   4   2.0000     -10.222344      -278.1641
   5   2.0000      -1.068614       -29.0785
   6   2.0000      -0.988144       -26.8888
   7   2.0000      -0.777971       -21.1697
   8   2.0000      -0.657930       -17.9032
   9   2.0000      -0.595675       -16.2091
  10   2.0000      -0.566832       -15.4243
  11   2.0000      -0.485763       -13.2183
  12   2.0000      -0.483130       -13.1466
  13   2.0000      -0.440766       -11.9938
  14   2.0000      -0.412065       -11.2129
  15   2.0000      -0.408023       -11.1029
  16   2.0000      -0.379593       -10.3293
  17   2.0000      -0.271220        -7.3803
  18   2.0000      -0.249643        -6.7931
  19   2.0000      -0.245569        -6.6823
  20   0.0000      -0.086798        -2.3619
  21   0.0000       0.053190         1.4474
  22   0.0000       0.079705         2.1689
  23   0.0000       0.085029         2.3138
  24   0.0000       0.099338         2.7031

MULLIKEN ATOMIC CHARGES
-----------------------
   0 H :    0.049316
   1 C :    0.021502
   2 C :   -0.138731
   3 H :    0.040307
   4 H :    0.207672
   5 O :   -0.198969
   6 H :    0.179901
   7 O :   -0.468872
   8 C :    0.269097
   9 H :    0.009876
  10 H :    0.028901
Sum of atomic charges:   -0.0000000

LOEWDIN ATOMIC CHARGES
----------------------
   0 H :    0.038572
   1 C :   -0.027947
   2 C :   -0.019070
   3 H :    0.037959
   4 H :    0.145601
   5 O :   -0.052675
   6 H :    0.087286
   7 O :   -0.375838
   8 C :    0.156900
   9 H :    0.000673
  10 H :    0.008540

  Mayer bond orders larger than 0.100000
B(  0-H ,  1-C ) :   0.9393 B(  1-C ,  2-C ) :   1.6889 B(  1-C ,  3-H ) :   0.9411
B(  1-C ,  5-O ) :   0.1068 B(  2-C ,  4-H ) :   0.4158 B(  2-C ,  5-O ) :   1.1744
B(  2-C ,  8-C ) :   0.5508 B(  4-H ,  7-O ) :   0.3986 B(  4-H ,  8-C ) :   0.1736
B(  5-O ,  6-H ) :   0.9108 B(  6-H ,  7-O ) :   0.1147 B(  7-O ,  8-C ) :   1.2595
B(  8-C ,  9-H ) :   0.9251 B(  8-C , 10-H ) :   0.8926

Dispersion correction           -0.012086116
FINAL SINGLE POINT ENERGY      -267.861568103913
Dispersion correction             ... done (  0.1 sec)

DIPOLE MOMENT
-------------

Method             : SCF
Type of density    : Electron Density
Multiplicity       :   1
Irrep              :   0
Energy             :  -267.8494819879312558 Eh
Basis              : AO
                                X                 Y                 Z
Electronic contribution:      2.446496141      -0.412426407       0.340873023
Nuclear contribution   :     -3.251722792       0.882152921      -0.979735413
                        -----------------------------------------
Total Dipole Moment    :     -0.805226651       0.469726514      -0.638862391
                        -----------------------------------------
Magnitude (a.u.)       :      1.130123052
Magnitude (Debye)      :      2.872544512

Rotational constants in cm-1:             0.290848             0.130926             0.098156
Rotational constants in MHz :          8719.415005          3925.055703          2942.636765

                             ****ORCA TERMINATED NORMALLY****
TOTAL RUN TIME: 0 days 0 hours 0 minutes 11 seconds 50 msec
