                         Program Version 6.1.0  -  RELEASE   -
|  1> ! B3LYP def2-SVP d3 EnGrad
|  2> %pal nprocs 6 end
|  3> *xyz 0 1
|  4> C   2.166143389e-05 -1.21603754708863 6.68128373e-05
|  5> H   0.00011378115219 -1.8858313646189 -0.88203506618889
|  6> H   -4.576825514e-05 -1.88573042315354 0.8822453924905
|  7> C   1.18122678125941 -0.28386306889557 0.00012094241305
|  8> H   2.22138827086327 -0.61272803478175 0.0002321041474
|  9> C   0.73494190304361 0.99330521323618 8.98616546e-06
| 10> H   1.35404983091254 1.89275186403684 1.275956625e-05
| 11> C   -1.18121663880842 -0.28390488948998 -9.164912985e-05
| 12> H   -2.22136645864193 -0.61280667354972 -0.00016678231383
| 13> C   -0.73497714808075 0.993279385062 -0.00012270632539
| 14> H   -1.35411621487868 1.89270453924309 -0.00022879366199
| 15> *
| 16>
| 17>                          ****END OF INPUT****

CARTESIAN COORDINATES (ANGSTROEM)
---------------------------------
  C      0.000022   -1.216038    0.000067
  H      0.000114   -1.885831   -0.882035
  H     -0.000046   -1.885730    0.882245
  C      1.181227   -0.283863    0.000121
  H      2.221388   -0.612728    0.000232
  C      0.734942    0.993305    0.000009
  H      1.354050    1.892752    0.000013
  C     -1.181217   -0.283905   -0.000092
  H     -2.221366   -0.612807   -0.000167
  C     -0.734977    0.993279   -0.000123
  H     -1.354116    1.892705   -0.000229

 Total Charge           Charge          ....    0
 Multiplicity           Mult            ....    1
 Number of Electrons    NEL             ....   36
 Basis Dimension        Dim             ....  100

ORBITAL ENERGIES
----------------

  NO   OCC          E(Eh)            E(eV)
   0   2.0000     -10.190115      -277.2871
   1   2.0000     -10.179615      -277.0014
   2   2.0000     -10.179527      -276.9990
   3   2.0000     -10.178524      -276.9717
   4   2.0000     -10.178514      -276.9714
   5   2.0000      -0.843855       -22.9625
   6   2.0000      -0.691155       -18.8073
   7   2.0000      -0.690946       -18.8016
   8   2.0000      -0.541061       -14.7230
   9   2.0000      -0.520034       -14.1509
  10   2.0000      -0.506938       -13.7945
  11   2.0000      -0.430972       -11.7273
  12   2.0000      -0.393692       -10.7129
  13   2.0000      -0.372271       -10.1300
  14   2.0000      -0.356793        -9.7088
  15   2.0000      -0.356739        -9.7074
  16   2.0000      -0.297923        -8.1069
  17   2.0000      -0.217837        -5.9277
  18   0.0000      -0.018331        -0.4988
  19   0.0000       0.073746         2.0067
  20   0.0000       0.078007         2.1227
  21   0.0000       0.102955         2.8016
  22   0.0000       0.119100         3.2409

MULLIKEN ATOMIC CHARGES
-----------------------
   0 C :    0.106447
   1 H :    0.037928
   2 H :    0.037928
   3 C :   -0.079326
   4 H :   -0.007460
   5 C :    0.011544
   6 H :   -0.015911
   7 C :   -0.079326
   8 H :   -0.007460
   9 C :    0.011544
  10 H :   -0.015910
Sum of atomic charges:    0.0000000

LOEWDIN ATOMIC CHARGES
----------------------
   0 C :   -0.030343
   1 H :    0.050489
   2 H :    0.050489
   3 C :   -0.038047
   4 H :    0.019900
   5 C :   -0.038189
   6 H :    0.021018
   7 C :   -0.038047
   8 H :    0.019900
   9 C :   -0.038189
  10 H :    0.021018

  Mayer bond orders larger than 0.100000
B(  0-C ,  1-H ) :   0.9036 B(  0-C ,  2-H ) :   0.9036 B(  0-C ,  3-C ) :   1.0503
B(  0-C ,  7-C ) :   1.0503 B(  3-C ,  4-H ) :   0.9888 B(  3-C ,  5-C ) :   1.7686
B(  5-C ,  6-H ) :   0.9962 B(  5-C ,  9-C ) :   1.0834 B(  7-C ,  8-H ) :   0.9888
B(  7-C ,  9-C ) :   1.7686 B(  9-C , 10-H ) :   0.9962

Dispersion correction           -0.014835782
FINAL SINGLE POINT ENERGY      -193.846683411374
Dispersion correction             ... done (  0.1 sec)

DIPOLE MOMENT
-------------

Method             : SCF
Type of density    : Electron Density
Multiplicity       :   1
Irrep              :   0
Energy             :  -193.8318476294281254 Eh
Basis              : AO
                                X                 Y                 Z
Electronic contribution:     -0.000019843       1.041634113      -0.000058089
Nuclear contribution   :      0.000023499      -1.240132375       0.000068827
                        -----------------------------------------
Total Dipole Moment    :      0.000003656      -0.198498263       0.000010738
                        -----------------------------------------
Magnitude (a.u.)       :      0.198498263
Magnitude (Debye)      :      0.504542488

Rotational constants in cm-1:             0.280526             0.273190             0.142064
Rotational constants in MHz :          8409.969980          8190.034188          4258.985188

                             ****ORCA TERMINATED NORMALLY****
TOTAL RUN TIME: 0 days 0 hours 0 minutes 12 seconds 766 msec
