                         Program Version 6.1.0  -  RELEASE   -
|  1> ! B3LYP def2-SVP d3 EnGrad
|  2> %pal nprocs 6 end
|  3> *xyz 0 1
|  4> H   1.89077161706733 -1.76770577042592 0.20752429837356
|  5> C   1.62936918306585 -0.80600658165651 -0.25743064727663
|  6> C   0.3679812793167 -0.24745542944791 0.40625846014495
|  7> H   2.48337388934601 -0.11874879395579 -0.14267823341888
|  8> H   0.60492415356081 -0.03736814781725 1.4761261096283
|  9> O   -0.70171426515247 -1.13786008745004 0.29863489381808
| 10> H   -1.44252911477544 -0.6192759850872 -0.06424631024752
| 11> O   -1.11410505084031 1.31232867742415 -0.6188565774304
| 12> C   -0.00771051768773 1.09768464922352 -0.18375961674379
| 13> H   1.44693631068358 -0.9805963710301 -1.32938215093323
| 14> H   0.78981851541564 1.88285584022306 -0.18845022591444
| 15> *
| 16>
| 17>                          ****END OF INPUT****

CARTESIAN COORDINATES (ANGSTROEM)
---------------------------------
  H      1.890772   -1.767706    0.207524
  C      1.629369   -0.806007   -0.257431
  C      0.367981   -0.247455    0.406258
  H      2.483374   -0.118749   -0.142678
  H      0.604924   -0.037368    1.476126
  O     -0.701714   -1.137860    0.298635
  H     -1.442529   -0.619276   -0.064246
  O     -1.114105    1.312329   -0.618857
  C     -0.007711    1.097685   -0.183760
  H      1.446936   -0.980596   -1.329382
  H      0.789819    1.882856   -0.188450

 Total Charge           Charge          ....    0
 Multiplicity           Mult            ....    1
 Number of Electrons    NEL             ....   40
 Basis Dimension        Dim             ....  100

ORBITAL ENERGIES
----------------

  NO   OCC          E(Eh)            E(eV)
   0   2.0000     -19.157076      -521.2905
   1   2.0000     -19.126477      -520.4579
   2   2.0000     -10.288139      -279.9545
   3   2.0000     -10.248934      -278.8877
   4   2.0000     -10.194855      -277.4161
   5   2.0000      -1.065265       -28.9873
   6   2.0000      -1.008037       -27.4301
   7   2.0000      -0.768899       -20.9228
   8   2.0000      -0.658256       -17.9121
   9   2.0000      -0.578684       -15.7468
  10   2.0000      -0.528117       -14.3708
  11   2.0000      -0.496577       -13.5126
  12   2.0000      -0.464625       -12.6431
  13   2.0000      -0.425557       -11.5800
  14   2.0000      -0.405713       -11.0400
  15   2.0000      -0.392195       -10.6722
  16   2.0000      -0.379072       -10.3151
  17   2.0000      -0.352857        -9.6017
  18   2.0000      -0.281484        -7.6596
  19   2.0000      -0.273209        -7.4344
  20   0.0000      -0.042627        -1.1599
  21   0.0000       0.060255         1.6396
  22   0.0000       0.090604         2.4655
  23   0.0000       0.098024         2.6674
  24   0.0000       0.106391         2.8951

MULLIKEN ATOMIC CHARGES
-----------------------
   0 H :    0.036795
   1 C :    0.015872
   2 C :    0.104926
   3 H :    0.010630
   4 H :    0.010686
   5 O :   -0.282202
   6 H :    0.159821
   7 O :   -0.211436
   8 C :    0.129171
   9 H :    0.020642
  10 H :    0.005095
Sum of atomic charges:    0.0000000

LOEWDIN ATOMIC CHARGES
----------------------
   0 H :    0.035627
   1 C :   -0.053450
   2 C :    0.016514
   3 H :    0.025216
   4 H :    0.025323
   5 O :   -0.128228
   6 H :    0.065387
   7 O :   -0.128264
   8 C :    0.112521
   9 H :    0.027963
  10 H :    0.001390

  Mayer bond orders larger than 0.100000
B(  0-H ,  1-C ) :   0.9623 B(  1-C ,  2-C ) :   1.0394 B(  1-C ,  3-H ) :   0.9558
B(  1-C ,  9-H ) :   0.9626 B(  2-C ,  4-H ) :   0.8939 B(  2-C ,  5-O ) :   1.1445
B(  2-C ,  8-C ) :   0.9388 B(  5-O ,  6-H ) :   0.9454 B(  7-O ,  8-C ) :   2.1082
B(  8-C , 10-H ) :   0.9324

Dispersion correction           -0.012166257
FINAL SINGLE POINT ENERGY      -268.026352365628
Dispersion correction             ... done (  0.0 sec)

DIPOLE MOMENT
-------------

Method             : SCF
Type of density    : Electron Density
Multiplicity       :   1
Irrep              :   0
Energy             :  -268.0141861085169239 Eh
Basis              : AO
                                X                 Y                 Z
Electronic contribution:     -4.509845310       1.959857348      -0.222041922
Nuclear contribution   :      5.338660247      -1.664268465       0.383258734
                        -----------------------------------------
Total Dipole Moment    :      0.828814937       0.295588882       0.161216812
                        -----------------------------------------
Magnitude (a.u.)       :      0.894593678
Magnitude (Debye)      :      2.273876420

Rotational constants in cm-1:             0.285109             0.140687             0.104667
Rotational constants in MHz :          8547.366740          4217.680299          3137.846038

                             ****ORCA TERMINATED NORMALLY****
TOTAL RUN TIME: 0 days 0 hours 0 minutes 12 seconds 541 msec
