                         Program Version 6.1.0  -  RELEASE   -
|  1> ! B3LYP def2-SVP d3 EnGrad
|  2> %pal nprocs 6 end
|  3> *xyz 0 1
|  4> N   -2.22819602762225 -0.16980727100525 0.16240851642883
|  5> B   1.26520564030027 -0.15047492972294 -1.02502380171103
|  6> B   1.24613599425639 0.99609198173983 0.51198126778765
|  7> N   0.65039148929501 -0.42579426113696 0.36847565668583
|  8> H   -2.40906032765756 0.76435730262471 0.53498401554494
|  9> H   -2.95577453619301 -0.78260626043122 0.53413775786355
| 10> H   -2.37749725866575 -0.11017209339095 -0.84679645626838
| 11> H   2.26381956806189 -0.7811469329736 -1.28046792703967
| 12> H   0.44880604441088 0.05293875034191 -1.89522357516183
| 13> H   1.74347898491904 1.09033790519248 -0.74812413764933
| 14> H   2.23226237837039 1.07388411940033 1.2058629240166
| 15> H   0.41753829668876 1.87748892643775 0.55272800162045
| 16> H   -0.38666727803731 -0.47664689182593 0.39452464469391
| 17> H   1.09498803187321 -1.15502234525019 0.91764011318848
| 18> *
| 19>
| 20>                          ****END OF INPUT****

CARTESIAN COORDINATES (ANGSTROEM)
---------------------------------
  N     -2.228196   -0.169807    0.162409
  B      1.265206   -0.150475   -1.025024
  B      1.246136    0.996092    0.511981
  N      0.650391   -0.425794    0.368476
  H     -2.409060    0.764357    0.534984
  H     -2.955775   -0.782606    0.534138
  H     -2.377497   -0.110172   -0.846796
  H      2.263820   -0.781147   -1.280468
  H      0.448806    0.052939   -1.895224
  H      1.743479    1.090338   -0.748124
  H      2.232262    1.073884    1.205863
  H      0.417538    1.877489    0.552728
  H     -0.386667   -0.476647    0.394525
  H      1.094988   -1.155022    0.917640

 Total Charge           Charge          ....    0
 Multiplicity           Mult            ....    1
 Number of Electrons    NEL             ....   34
 Basis Dimension        Dim             ....  106

ORBITAL ENERGIES
----------------

  NO   OCC          E(Eh)            E(eV)
   0   2.0000     -14.340900      -390.2357
   1   2.0000     -14.338492      -390.1702
   2   2.0000      -6.733175      -183.2190
   3   2.0000      -6.733103      -183.2170
   4   2.0000      -0.885077       -24.0842
   5   2.0000      -0.867762       -23.6130
   6   2.0000      -0.582659       -15.8549
   7   2.0000      -0.517703       -14.0874
   8   2.0000      -0.487248       -13.2587
   9   2.0000      -0.486553       -13.2398
  10   2.0000      -0.457720       -12.4552
  11   2.0000      -0.413114       -11.2414
  12   2.0000      -0.321711        -8.7542
  13   2.0000      -0.320814        -8.7298
  14   2.0000      -0.316799        -8.6205
  15   2.0000      -0.292504        -7.9594
  16   2.0000      -0.292352        -7.9553
  17   0.0000       0.027652         0.7524
  18   0.0000       0.069695         1.8965
  19   0.0000       0.073953         2.0124
  20   0.0000       0.110574         3.0089
  21   0.0000       0.117514         3.1977

MULLIKEN ATOMIC CHARGES
-----------------------
   0 N :   -0.220765
   1 B :   -0.119321
   2 B :   -0.120634
   3 N :    0.034871
   4 H :    0.116603
   5 H :    0.105801
   6 H :    0.117370
   7 H :   -0.036893
   8 H :   -0.058132
   9 H :    0.026017
  10 H :   -0.036408
  11 H :   -0.058359
  12 H :    0.115576
  13 H :    0.134275
Sum of atomic charges:    0.0000000

LOEWDIN ATOMIC CHARGES
----------------------
   0 N :   -0.082864
   1 B :   -0.216595
   2 B :   -0.216929
   3 N :    0.183578
   4 H :    0.071352
   5 H :    0.066072
   6 H :    0.071846
   7 H :   -0.031653
   8 H :   -0.036800
   9 H :    0.098484
  10 H :   -0.031619
  11 H :   -0.036908
  12 H :    0.063643
  13 H :    0.098392

  Mayer bond orders larger than 0.100000
B(  0-N ,  4-H ) :   0.9827 B(  0-N ,  5-H ) :   0.9872 B(  0-N ,  6-H ) :   0.9827
B(  0-N , 12-H ) :   0.2007 B(  1-B ,  2-B ) :   0.3216 B(  1-B ,  3-N ) :   0.8964
B(  1-B ,  7-H ) :   0.9728 B(  1-B ,  8-H ) :   0.9675 B(  1-B ,  9-H ) :   0.4867
B(  2-B ,  3-N ) :   0.8962 B(  2-B ,  9-H ) :   0.4873 B(  2-B , 10-H ) :   0.9728
B(  2-B , 11-H ) :   0.9676 B(  3-N , 12-H ) :   0.8739 B(  3-N , 13-H ) :   0.9570

Dispersion correction           -0.013829891
FINAL SINGLE POINT ENERGY      -165.043689201575
Dispersion correction             ... done (  0.1 sec)

DIPOLE MOMENT
-------------

Method             : SCF
Type of density    : Electron Density
Multiplicity       :   1
Irrep              :   0
Energy             :  -165.0298593104016334 Eh
Basis              : AO
                                X                 Y                 Z
Electronic contribution:      0.815249224      -1.121490317       0.826763433
Nuclear contribution   :     -2.515460854       0.502781758      -0.366505139
                        -----------------------------------------
Total Dipole Moment    :     -1.700211630      -0.618708559       0.460258295
                        -----------------------------------------
Magnitude (a.u.)       :      1.866911237
Magnitude (Debye)      :      4.745311247

Rotational constants in cm-1:             0.361376             0.103302             0.094661
Rotational constants in MHz :         10833.775106          3096.911578          2837.855118

                             ****ORCA TERMINATED NORMALLY****
TOTAL RUN TIME: 0 days 0 hours 0 minutes 12 seconds 347 msec
