                         Program Version 6.1.0  -  RELEASE   -
|  1> ! B3LYP def2-SVP d3 EnGrad
|  2> %pal nprocs 6 end
|  3> *xyz 0 1
|  4> C   3.21133988060551 -1.32053126640192 -0.44616571176604
|  5> C   2.27580607608993 -0.1202366987993 -0.36385707543698
|  6> N   1.30831654607056 -0.25132154166958 0.59932189866321
|  7> C   0.09937745130952 0.54549309234833 0.77016020560228
|  8> C   -1.09998618046472 -0.37342223375081 0.4286878779834
|  9> N   -2.22612979438782 0.23286095521809 -0.02677623686901
| 10> C   -3.43907380076295 -0.49914193806074 -0.32883431825281
| 11> O   2.4061871797538 0.84967184074111 -1.09054516178201
| 12> C   0.1045594983845 1.91352137596958 0.08826862736975
| 13> O   -1.01669818969306 -1.57719549074257 0.62867288646559
| 14> H   2.72431665456495 -2.12792541112287 -1.01839329164741
| 15> H   3.46815417314435 -1.71640981172816 0.54872836072948
| 16> H   4.12407587673441 -1.01853878307941 -0.9746872260516
| 17> H   1.18611532022964 -1.18512093816894 0.98152979935017
| 18> H   -0.01188674992812 0.72573033405652 1.85779221721671
| 19> H   -2.19267492583546 1.22264572723615 -0.23151698287111
| 20> H   -3.68411531357521 -0.44973265882493 -1.40349204797882
| 21> H   -4.29561669735279 -0.10826475769971 0.24539060811925
| 22> H   -3.27265262211255 -1.54851390723849 -0.05317583342622
| 23> H   -0.7602295294027 2.49776536517695 0.44495936438433
| 24> H   0.07908077357342 1.83751495745431 -1.00579382808439
| 25> H   1.01173437305481 2.4711517890864 0.34972586828219
| 26> *
| 27>
| 28>                          ****END OF INPUT****

CARTESIAN COORDINATES (ANGSTROEM)
---------------------------------
  C      3.211340   -1.320531   -0.446166
  C      2.275806   -0.120237   -0.363857
  N      1.308317   -0.251322    0.599322
  C      0.099377    0.545493    0.770160
  C     -1.099986   -0.373422    0.428688
  N     -2.226130    0.232861   -0.026776
  C     -3.439074   -0.499142   -0.328834
  O      2.406187    0.849672   -1.090545
  C      0.104559    1.913521    0.088269
  O     -1.016698   -1.577195    0.628673
  H      2.724317   -2.127925   -1.018393
  H      3.468154   -1.716410    0.548728
  H      4.124076   -1.018539   -0.974687
  H      1.186115   -1.185121    0.981530
  H     -0.011887    0.725730    1.857792
  H     -2.192675    1.222646   -0.231517
  H     -3.684115   -0.449733   -1.403492
  H     -4.295617   -0.108265    0.245391
  H     -3.272653   -1.548514   -0.053176
  H     -0.760230    2.497765    0.444959
  H      0.079081    1.837515   -1.005794
  H      1.011734    2.471152    0.349726

 Total Charge           Charge          ....    0
 Multiplicity           Mult            ....    1
 Number of Electrons    NEL             ....   78
 Basis Dimension        Dim             ....  200

ORBITAL ENERGIES
----------------

  NO   OCC          E(Eh)            E(eV)
   0   2.0000     -19.102063      -519.7936
   1   2.0000     -19.084313      -519.3106
   2   2.0000     -14.360698      -390.7745
   3   2.0000     -14.338762      -390.1775
   4   2.0000     -10.285496      -279.8826
   5   2.0000     -10.275990      -279.6239
   6   2.0000     -10.237827      -278.5854
   7   2.0000     -10.225460      -278.2489
   8   2.0000     -10.189057      -277.2583
   9   2.0000     -10.183389      -277.1041
  10   2.0000      -1.031052       -28.0564
  11   2.0000      -1.010620       -27.5004
  12   2.0000      -0.919250       -25.0141
  13   2.0000      -0.905878       -24.6502
  14   2.0000      -0.775097       -21.0915
  15   2.0000      -0.716727       -19.5031
  16   2.0000      -0.699143       -19.0246
  17   2.0000      -0.648676       -17.6514
  18   2.0000      -0.591737       -16.1020
  19   2.0000      -0.548015       -14.9122
  20   2.0000      -0.534422       -14.5424
  21   2.0000      -0.503910       -13.7121
  22   2.0000      -0.469106       -12.7650
  23   2.0000      -0.457788       -12.4570
  24   2.0000      -0.447725       -12.1832
  25   2.0000      -0.439709       -11.9651
  26   2.0000      -0.425978       -11.5914
  27   2.0000      -0.411385       -11.1943
  28   2.0000      -0.398988       -10.8570
  29   2.0000      -0.394691       -10.7401
  30   2.0000      -0.389779       -10.6064
  31   2.0000      -0.383345       -10.4314
  32   2.0000      -0.373246       -10.1566
  33   2.0000      -0.361195        -9.8286
  34   2.0000      -0.349346        -9.5062
  35   2.0000      -0.267786        -7.2868
  36   2.0000      -0.263255        -7.1635
  37   2.0000      -0.247166        -6.7257
  38   2.0000      -0.236770        -6.4428
  39   0.0000       0.017461         0.4751
  40   0.0000       0.033033         0.8989
  41   0.0000       0.044066         1.1991
  42   0.0000       0.069882         1.9016
  43   0.0000       0.078297         2.1306

MULLIKEN ATOMIC CHARGES
-----------------------
   0 C :    0.020476
   1 C :    0.044146
   2 N :   -0.161037
   3 C :    0.058123
   4 C :    0.072632
   5 N :   -0.174294
   6 C :    0.103143
   7 O :   -0.270049
   8 C :    0.045650
   9 O :   -0.273718
  10 H :    0.043528
  11 H :    0.022276
  12 H :    0.031746
  13 H :    0.120789
  14 H :    0.022103
  15 H :    0.118458
  16 H :    0.027733
  17 H :    0.024444
  18 H :    0.050769
  19 H :    0.000058
  20 H :    0.036915
  21 H :    0.036109
Sum of atomic charges:    0.0000000

LOEWDIN ATOMIC CHARGES
----------------------
   0 C :   -0.077882
   1 C :    0.064592
   2 N :   -0.022369
   3 C :    0.010236
   4 C :    0.059283
   5 N :   -0.016886
   6 C :    0.027981
   7 O :   -0.223469
   8 C :   -0.055050
   9 O :   -0.232327
  10 H :    0.043977
  11 H :    0.030075
  12 H :    0.038979
  13 H :    0.072818
  14 H :    0.036640
  15 H :    0.075352
  16 H :    0.022737
  17 H :    0.021795
  18 H :    0.036533
  19 H :    0.016418
  20 H :    0.030701
  21 H :    0.039867

  Mayer bond orders larger than 0.100000
B(  0-C ,  1-C ) :   1.0187 B(  0-C , 10-H ) :   0.9516 B(  0-C , 11-H ) :   0.9580
B(  0-C , 12-H ) :   0.9568 B(  1-C ,  2-N ) :   1.1905 B(  1-C ,  7-O ) :   2.0318
B(  2-N ,  3-C ) :   1.0081 B(  2-N , 13-H ) :   0.9067 B(  3-C ,  4-C ) :   0.9075
B(  3-C ,  8-C ) :   1.1066 B(  3-C , 14-H ) :   0.8998 B(  4-C ,  5-N ) :   1.2658
B(  4-C ,  9-O ) :   2.0214 B(  5-N ,  6-C ) :   0.9852 B(  5-N , 15-H ) :   0.9184
B(  6-C , 16-H ) :   0.9756 B(  6-C , 17-H ) :   0.9750 B(  6-C , 18-H ) :   0.9608
B(  8-C , 19-H ) :   0.9367 B(  8-C , 20-H ) :   0.9598 B(  8-C , 21-H ) :   0.9435

Dispersion correction           -0.033133491
FINAL SINGLE POINT ENERGY      -495.231418174394
Dispersion correction             ... done (  0.0 sec)

DIPOLE MOMENT
-------------

Method             : SCF
Type of density    : Electron Density
Multiplicity       :   1
Irrep              :   0
Energy             :  -495.1982846838876071 Eh
Basis              : AO
                                X                 Y                 Z
Electronic contribution:      2.126384809      -1.007709398       0.819033366
Nuclear contribution   :     -3.198612864       1.300225183      -0.415086899
                        -----------------------------------------
Total Dipole Moment    :     -1.072228055       0.292515785       0.403946467
                        -----------------------------------------
Magnitude (a.u.)       :      1.182544390
Magnitude (Debye)      :      3.005788965

Rotational constants in cm-1:             0.082063             0.024657             0.021238
Rotational constants in MHz :          2460.196389           739.187618           636.694971

                             ****ORCA TERMINATED NORMALLY****
TOTAL RUN TIME: 0 days 0 hours 0 minutes 35 seconds 403 msec
