                         Program Version 6.1.0  -  RELEASE   -
|  1> ! B3LYP def2-SVP d3 EnGrad
|  2> %pal nprocs 6 end
|  3> *xyz 0 1
|  4> C   1.47645898147958 0.08164988823451 0.23366776879569
|  5> C   0.65140023287841 1.33211201445399 0.0643798339542
|  6> C   -0.66645487743185 1.31930133838826 -0.1769445396288
|  7> C   -1.48010012158388 0.05381014546532 -0.2754272331885
|  8> C   0.72832298715621 -1.17264497154767 -0.23579532882956
|  9> C   -0.72017213668881 -1.16553907644567 0.2622397439596
| 10> H   1.17335193139377 2.29248172106369 0.14486496708488
| 11> H   2.42960040429207 0.18813191091216 -0.31377689979547
| 12> H   1.76379544235085 -0.02417049845813 1.29847818562462
| 13> H   0.7277439370149 -1.20278732904871 -1.3404383049773
| 14> H   1.25403201296051 -2.07990687714479 0.104561466203
| 15> H   -0.71951532367487 -1.13478713443225 1.3668375884388
| 16> H   -1.23735176933591 -2.0951125738772 -0.02709228931641
| 17> H   -2.43375484282584 0.18177991512955 0.26661325780893
| 18> H   -1.76749355947028 -0.11358866194575 -1.33232079937801
| 19> H   -1.19708629851487 2.26879818925273 -0.31125241675569
| 20> *
| 21>
| 22>                          ****END OF INPUT****

CARTESIAN COORDINATES (ANGSTROEM)
---------------------------------
  C      1.476459    0.081650    0.233668
  C      0.651400    1.332112    0.064380
  C     -0.666455    1.319301   -0.176945
  C     -1.480100    0.053810   -0.275427
  C      0.728323   -1.172645   -0.235795
  C     -0.720172   -1.165539    0.262240
  H      1.173352    2.292482    0.144865
  H      2.429600    0.188132   -0.313777
  H      1.763795   -0.024170    1.298478
  H      0.727744   -1.202787   -1.340438
  H      1.254032   -2.079907    0.104561
  H     -0.719515   -1.134787    1.366838
  H     -1.237352   -2.095113   -0.027092
  H     -2.433755    0.181780    0.266613
  H     -1.767494   -0.113589   -1.332321
  H     -1.197086    2.268798   -0.311252

 Total Charge           Charge          ....    0
 Multiplicity           Mult            ....    1
 Number of Electrons    NEL             ....   46
 Basis Dimension        Dim             ....  134

ORBITAL ENERGIES
----------------

  NO   OCC          E(Eh)            E(eV)
   0   2.0000     -10.180163      -277.0163
   1   2.0000     -10.180142      -277.0158
   2   2.0000     -10.176770      -276.9240
   3   2.0000     -10.176685      -276.9217
   4   2.0000     -10.174458      -276.8611
   5   2.0000     -10.173767      -276.8423
   6   2.0000      -0.819057       -22.2877
   7   2.0000      -0.727787       -19.8041
   8   2.0000      -0.725831       -19.7509
   9   2.0000      -0.606660       -16.5081
  10   2.0000      -0.586276       -15.9534
  11   2.0000      -0.499989       -13.6054
  12   2.0000      -0.486430       -13.2364
  13   2.0000      -0.438457       -11.9310
  14   2.0000      -0.420020       -11.4293
  15   2.0000      -0.403681       -10.9847
  16   2.0000      -0.385372       -10.4865
  17   2.0000      -0.375551       -10.2193
  18   2.0000      -0.373962       -10.1760
  19   2.0000      -0.322450        -8.7743
  20   2.0000      -0.314205        -8.5500
  21   2.0000      -0.302208        -8.2235
  22   2.0000      -0.237778        -6.4703
  23   0.0000       0.024419         0.6645
  24   0.0000       0.057373         1.5612
  25   0.0000       0.090516         2.4631
  26   0.0000       0.096112         2.6153
  27   0.0000       0.100192         2.7264

MULLIKEN ATOMIC CHARGES
-----------------------
   0 C :    0.086705
   1 C :   -0.080664
   2 C :   -0.080536
   3 C :    0.086639
   4 C :    0.009209
   5 C :    0.009388
   6 H :   -0.014422
   7 H :    0.000499
   8 H :    0.006505
   9 H :   -0.000826
  10 H :   -0.007068
  11 H :   -0.000863
  12 H :   -0.007194
  13 H :    0.000550
  14 H :    0.006496
  15 H :   -0.014416
Sum of atomic charges:    0.0000000

LOEWDIN ATOMIC CHARGES
----------------------
   0 C :   -0.036174
   1 C :   -0.045353
   2 C :   -0.045340
   3 C :   -0.036177
   4 C :   -0.030997
   5 C :   -0.030995
   6 H :    0.020248
   7 H :    0.026222
   8 H :    0.027101
   9 H :    0.019501
  10 H :    0.019453
  11 H :    0.019497
  12 H :    0.019432
  13 H :    0.026248
  14 H :    0.027092
  15 H :    0.020245

  Mayer bond orders larger than 0.100000
B(  0-C ,  1-C ) :   1.0310 B(  0-C ,  4-C ) :   1.0909 B(  0-C ,  7-H ) :   0.9290
B(  0-C ,  8-H ) :   0.9199 B(  1-C ,  2-C ) :   1.9503 B(  1-C ,  6-H ) :   0.9601
B(  2-C ,  3-C ) :   1.0310 B(  2-C , 15-H ) :   0.9601 B(  3-C ,  5-C ) :   1.0910
B(  3-C , 13-H ) :   0.9290 B(  3-C , 14-H ) :   0.9199 B(  4-C ,  5-C ) :   1.0828
B(  4-C ,  9-H ) :   0.9451 B(  4-C , 10-H ) :   0.9358 B(  5-C , 11-H ) :   0.9451
B(  5-C , 12-H ) :   0.9358

Dispersion correction           -0.023346138
FINAL SINGLE POINT ENERGY      -234.336326543193
Dispersion correction             ... done (  0.1 sec)

DIPOLE MOMENT
-------------

Method             : SCF
Type of density    : Electron Density
Multiplicity       :   1
Irrep              :   0
Energy             :  -234.3129804055577665 Eh
Basis              : AO
                                X                 Y                 Z
Electronic contribution:     -0.008492443       1.926572017      -0.054256878
Nuclear contribution   :      0.008968679      -2.030456041       0.057290903
                        -----------------------------------------
Total Dipole Moment    :      0.000476236      -0.103884024       0.003034024
                        -----------------------------------------
Magnitude (a.u.)       :      0.103929411
Magnitude (Debye)      :      0.264167569

Rotational constants in cm-1:             0.157209             0.151025             0.084818
Rotational constants in MHz :          4712.997397          4527.609654          2542.784894

                             ****ORCA TERMINATED NORMALLY****
TOTAL RUN TIME: 0 days 0 hours 0 minutes 19 seconds 900 msec
