                         Program Version 6.1.0  -  RELEASE   -
|  1> ! B3LYP def2-SVP d3 EnGrad
|  2> %pal nprocs 6 end
|  3> *xyz 0 1
|  4> C   1.66251480373681 0.24466047093697 0.06571642503465
|  5> C   0.28328629268714 0.72552023974784 0.39514319306005
|  6> H   1.8677133964303 0.27184017174253 -1.02388561193513
|  7> H   1.84527570970887 -0.80282885798328 0.38086226959786
|  8> H   2.42034250332228 0.86270698324802 0.56850821105497
|  9> C   -0.88440009656644 0.08552691888337 -0.12284199704855
| 10> O   -2.09401466731556 0.68180064657455 0.03767777740479
| 11> C   -0.91497170754158 -1.22514175981702 -0.67191287864554
| 12> H   0.00951014002687 -1.73707847772949 -0.92699881356247
| 13> H   -1.88180431384418 -1.67143047117049 -0.896973406084
| 14> H   -0.49146331170846 -0.64427877211516 0.81538591279338
| 15> H   -1.95531994477396 1.55933855179398 0.41963882565955
| 16> H   0.1333311958379 1.64936435588817 0.95968009267045
| 17> *
| 18>
| 19>                          ****END OF INPUT****

CARTESIAN COORDINATES (ANGSTROEM)
---------------------------------
  C      1.662515    0.244660    0.065716
  C      0.283286    0.725520    0.395143
  H      1.867713    0.271840   -1.023886
  H      1.845276   -0.802829    0.380862
  H      2.420343    0.862707    0.568508
  C     -0.884400    0.085527   -0.122842
  O     -2.094015    0.681801    0.037678
  C     -0.914972   -1.225142   -0.671913
  H      0.009510   -1.737078   -0.926999
  H     -1.881804   -1.671430   -0.896973
  H     -0.491463   -0.644279    0.815386
  H     -1.955320    1.559339    0.419639
  H      0.133331    1.649364    0.959680

 Total Charge           Charge          ....    0
 Multiplicity           Mult            ....    1
 Number of Electrons    NEL             ....   40
 Basis Dimension        Dim             ....  110

ORBITAL ENERGIES
----------------

  NO   OCC          E(Eh)            E(eV)
   0   2.0000     -19.166681      -521.5519
   1   2.0000     -10.277715      -279.6708
   2   2.0000     -10.184551      -277.1357
   3   2.0000     -10.177658      -276.9482
   4   2.0000     -10.167063      -276.6598
   5   2.0000      -1.059542       -28.8316
   6   2.0000      -0.814210       -22.1558
   7   2.0000      -0.717960       -19.5367
   8   2.0000      -0.639005       -17.3882
   9   2.0000      -0.582191       -15.8422
  10   2.0000      -0.511684       -13.9236
  11   2.0000      -0.462011       -12.5720
  12   2.0000      -0.445653       -12.1268
  13   2.0000      -0.413630       -11.2554
  14   2.0000      -0.395176       -10.7533
  15   2.0000      -0.389170       -10.5898
  16   2.0000      -0.367802       -10.0084
  17   2.0000      -0.354163        -9.6373
  18   2.0000      -0.301494        -8.2041
  19   2.0000      -0.164982        -4.4894
  20   0.0000       0.009162         0.2493
  21   0.0000       0.037821         1.0292
  22   0.0000       0.051670         1.4060
  23   0.0000       0.084304         2.2940
  24   0.0000       0.097318         2.6482

MULLIKEN ATOMIC CHARGES
-----------------------
   0 C :    0.075119
   1 C :   -0.292474
   2 H :    0.019800
   3 H :    0.007034
   4 H :    0.011124
   5 C :    0.189068
   6 O :   -0.191629
   7 C :   -0.202764
   8 H :    0.025949
   9 H :    0.029597
  10 H :    0.169442
  11 H :    0.175769
  12 H :   -0.016035
Sum of atomic charges:   -0.0000000

LOEWDIN ATOMIC CHARGES
----------------------
   0 C :   -0.055010
   1 C :   -0.197668
   2 H :    0.022677
   3 H :    0.019565
   4 H :    0.031471
   5 C :    0.079041
   6 O :   -0.053741
   7 C :   -0.199767
   8 H :    0.024622
   9 H :    0.026463
  10 H :    0.197501
  11 H :    0.091700
  12 H :    0.013145

  Mayer bond orders larger than 0.100000
B(  0-C ,  1-C ) :   1.0974 B(  0-C ,  2-H ) :   0.9567 B(  0-C ,  3-H ) :   0.9464
B(  0-C ,  4-H ) :   0.9541 B(  1-C ,  5-C ) :   1.1214 B(  1-C ,  7-C ) :   0.3540
B(  1-C , 10-H ) :   0.2357 B(  1-C , 12-H ) :   0.9494 B(  5-C ,  6-O ) :   1.1973
B(  5-C ,  7-C ) :   1.2291 B(  5-C , 10-H ) :   0.4784 B(  6-O , 11-H ) :   0.9633
B(  7-C ,  8-H ) :   0.9433 B(  7-C ,  9-H ) :   0.9408 B(  7-C , 10-H ) :   0.2493

Dispersion correction           -0.015307854
FINAL SINGLE POINT ENERGY      -232.013903816476
Dispersion correction             ... done (  0.1 sec)

DIPOLE MOMENT
-------------

Method             : SCF
Type of density    : Electron Density
Multiplicity       :   1
Irrep              :   0
Energy             :  -231.9985959621340896 Eh
Basis              : AO
                                X                 Y                 Z
Electronic contribution:     -4.728903133       1.794166056      -0.153796369
Nuclear contribution   :      4.902054750      -1.342134303       0.602708350
                        -----------------------------------------
Total Dipole Moment    :      0.173151616       0.452031753       0.448911980
                        -----------------------------------------
Magnitude (a.u.)       :      0.660178880
Magnitude (Debye)      :      1.678041358

Rotational constants in cm-1:             0.300775             0.123858             0.090730
Rotational constants in MHz :          9016.997529          3713.159460          2720.019652

                             ****ORCA TERMINATED NORMALLY****
TOTAL RUN TIME: 0 days 0 hours 0 minutes 13 seconds 859 msec
