                         Program Version 6.1.0  -  RELEASE   -
|  1> ! B3LYP def2-SVP d3 EnGrad
|  2> %pal nprocs 6 end
|  3> *xyz 0 1
|  4> H   -0.08320800647848 0.20958903600331 -1.79004070119685
|  5> C   -0.53603679199165 0.52969672626016 -0.84670731936422
|  6> C   0.31920766055571 0.77269555683328 0.27968961763496
|  7> H   -1.55044478203794 0.94071580477553 -0.87200130376316
|  8> H   -0.04575189003027 1.45406841314861 1.05982221127412
|  9> O   1.6643974615947 0.64203082080326 0.1781926007987
| 10> H   1.80038173751405 -0.34943759804044 0.29391573776818
| 11> O   0.72242354960354 -1.65820097226301 0.38771120666569
| 12> C   -0.24293332029135 -0.86912735005666 0.48021788621189
| 13> H   -1.05797971384396 -0.89096102020403 -0.46069842392905
| 14> H   -0.99005590459437 -0.78106941726001 1.28989848789974
| 15> *
| 16>
| 17>                          ****END OF INPUT****

CARTESIAN COORDINATES (ANGSTROEM)
---------------------------------
  H     -0.083208    0.209589   -1.790041
  C     -0.536037    0.529697   -0.846707
  C      0.319208    0.772696    0.279690
  H     -1.550445    0.940716   -0.872001
  H     -0.045752    1.454068    1.059822
  O      1.664397    0.642031    0.178193
  H      1.800382   -0.349438    0.293916
  O      0.722424   -1.658201    0.387711
  C     -0.242933   -0.869127    0.480218
  H     -1.057980   -0.890961   -0.460698
  H     -0.990056   -0.781069    1.289898

 Total Charge           Charge          ....    0
 Multiplicity           Mult            ....    1
 Number of Electrons    NEL             ....   40
 Basis Dimension        Dim             ....  100

ORBITAL ENERGIES
----------------

  NO   OCC          E(Eh)            E(eV)
   0   2.0000     -19.122213      -520.3419
   1   2.0000     -19.090592      -519.4814
   2   2.0000     -10.285109      -279.8721
   3   2.0000     -10.264908      -279.3224
   4   2.0000     -10.254523      -279.0397
   5   2.0000      -1.036507       -28.2048
   6   2.0000      -0.981307       -26.7027
   7   2.0000      -0.817710       -22.2510
   8   2.0000      -0.629784       -17.1373
   9   2.0000      -0.613213       -16.6864
  10   2.0000      -0.528590       -14.3837
  11   2.0000      -0.519321       -14.1314
  12   2.0000      -0.459740       -12.5101
  13   2.0000      -0.442327       -12.0363
  14   2.0000      -0.426563       -11.6074
  15   2.0000      -0.409489       -11.1428
  16   2.0000      -0.332448        -9.0464
  17   2.0000      -0.292654        -7.9635
  18   2.0000      -0.257792        -7.0149
  19   2.0000      -0.232799        -6.3348
  20   0.0000      -0.047739        -1.2990
  21   0.0000       0.043144         1.1740
  22   0.0000       0.065572         1.7843
  23   0.0000       0.087131         2.3710
  24   0.0000       0.099270         2.7013

MULLIKEN ATOMIC CHARGES
-----------------------
   0 H :    0.076849
   1 C :    0.049549
   2 C :    0.042295
   3 H :    0.064512
   4 H :    0.020510
   5 O :   -0.267874
   6 H :    0.176336
   7 O :   -0.368332
   8 C :    0.120032
   9 H :    0.031071
  10 H :    0.055052
Sum of atomic charges:    0.0000000

LOEWDIN ATOMIC CHARGES
----------------------
   0 H :    0.052873
   1 C :    0.075675
   2 C :    0.010288
   3 H :    0.043823
   4 H :    0.015429
   5 O :   -0.120231
   6 H :    0.060742
   7 O :   -0.301319
   8 C :    0.076704
   9 H :    0.052850
  10 H :    0.033166

  Mayer bond orders larger than 0.100000
B(  0-H ,  1-C ) :   0.9292 B(  1-C ,  2-C ) :   1.1175 B(  1-C ,  3-H ) :   0.9325
B(  1-C ,  7-O ) :   0.1269 B(  1-C ,  8-C ) :   0.2294 B(  1-C ,  9-H ) :   0.3301
B(  2-C ,  4-H ) :   0.9603 B(  2-C ,  5-O ) :   1.2214 B(  2-C ,  8-C ) :   0.6711
B(  5-O ,  6-H ) :   0.8669 B(  6-H ,  7-O ) :   0.1921 B(  7-O ,  8-C ) :   1.6841
B(  8-C ,  9-H ) :   0.5744 B(  8-C , 10-H ) :   0.8856

Dispersion correction           -0.012454766
FINAL SINGLE POINT ENERGY      -267.906544474448
Dispersion correction             ... done (  0.0 sec)

DIPOLE MOMENT
-------------

Method             : SCF
Type of density    : Electron Density
Multiplicity       :   1
Irrep              :   0
Energy             :  -267.8940897084993367 Eh
Basis              : AO
                                X                 Y                 Z
Electronic contribution:      2.576234646      -0.632520886       0.719867679
Nuclear contribution   :     -4.119373344       1.331315534      -1.016183460
                        -----------------------------------------
Total Dipole Moment    :     -1.543138698       0.698794647      -0.296315781
                        -----------------------------------------
Magnitude (a.u.)       :      1.719707546
Magnitude (Debye)      :      4.371149200

Rotational constants in cm-1:             0.239520             0.185894             0.124873
Rotational constants in MHz :          7180.627010          5572.972266          3743.600898

                             ****ORCA TERMINATED NORMALLY****
TOTAL RUN TIME: 0 days 0 hours 0 minutes 12 seconds 293 msec
