                         Program Version 6.1.0  -  RELEASE   -
|  1> ! B3LYP def2-SVP d3 EnGrad
|  2> %pal nprocs 6 end
|  3> *xyz 0 1
|  4> C   -0.06510099929837 2.0332276093564 -2.15728098094694
|  5> C   0.3843205566783 0.80235226928461 -1.31565996695464
|  6> O   1.31883145086519 0.11675952126631 -1.72652683306331
|  7> F   0.71289355563248 2.22700243132337 -3.22345843382885
|  8> F   -0.03880149799254 3.15388882589077 -1.41674761410313
|  9> F   -1.32637035387321 1.85903171471425 -2.59277527253596
| 10> O   -0.3171360232057 0.66001849920759 -0.26437298942745
| 11> C   -0.72687946671408 -1.28745813441364 0.56746561243544
| 12> C   -1.2200220478969 -0.84565550775384 1.88988285656203
| 13> N   1.52781005350295 -0.89654570890443 0.85922048865585
| 14> H   -1.37604860423472 -1.07773684759354 -0.2803320888474
| 15> H   -0.21967947330989 -2.24692497222 0.50232338141438
| 16> H   -2.18325065089773 -1.3667282494314 2.06410782765319
| 17> H   -0.53459813220378 -1.0947580595427 2.71027487081189
| 18> H   -1.43186385727194 0.23237428491545 1.88257480351537
| 19> H   2.18870834117753 -1.54848491057399 1.2868477998586
| 20> H   1.75022812374545 -0.71771564798308 -0.13398898679078
| 21> H   1.55695902529695 -0.00264711754216 1.34844552559169
| 22> *
| 23>
| 24>                          ****END OF INPUT****

CARTESIAN COORDINATES (ANGSTROEM)
---------------------------------
  C     -0.065101    2.033228   -2.157281
  C      0.384321    0.802352   -1.315660
  O      1.318831    0.116760   -1.726527
  F      0.712894    2.227002   -3.223458
  F     -0.038801    3.153889   -1.416748
  F     -1.326370    1.859032   -2.592775
  O     -0.317136    0.660018   -0.264373
  C     -0.726879   -1.287458    0.567466
  C     -1.220022   -0.845656    1.889883
  N      1.527810   -0.896546    0.859220
  H     -1.376049   -1.077737   -0.280332
  H     -0.219679   -2.246925    0.502323
  H     -2.183251   -1.366728    2.064108
  H     -0.534598   -1.094758    2.710275
  H     -1.431864    0.232374    1.882575
  H      2.188708   -1.548485    1.286848
  H      1.750228   -0.717716   -0.133989
  H      1.556959   -0.002647    1.348446

 Total Charge           Charge          ....    0
 Multiplicity           Mult            ....    1
 Number of Electrons    NEL             ....   82
 Basis Dimension        Dim             ....  180

ORBITAL ENERGIES
----------------

  NO   OCC          E(Eh)            E(eV)
   0   2.0000     -24.693621      -671.9476
   1   2.0000     -24.693204      -671.9362
   2   2.0000     -24.693146      -671.9347
   3   2.0000     -19.115084      -520.1479
   4   2.0000     -19.097073      -519.6578
   5   2.0000     -14.342326      -390.2745
   6   2.0000     -10.401818      -283.0479
   7   2.0000     -10.293408      -280.0979
   8   2.0000     -10.287562      -279.9388
   9   2.0000     -10.216399      -278.0024
  10   2.0000      -1.273421       -34.6515
  11   2.0000      -1.181695       -32.1556
  12   2.0000      -1.180732       -32.1293
  13   2.0000      -1.042273       -28.3617
  14   2.0000      -0.955964       -26.0131
  15   2.0000      -0.865841       -23.5607
  16   2.0000      -0.792376       -21.5616
  17   2.0000      -0.695440       -18.9239
  18   2.0000      -0.637676       -17.3520
  19   2.0000      -0.601238       -16.3605
  20   2.0000      -0.568608       -15.4726
  21   2.0000      -0.566416       -15.4130
  22   2.0000      -0.512713       -13.9516
  23   2.0000      -0.499813       -13.6006
  24   2.0000      -0.489187       -13.3114
  25   2.0000      -0.471354       -12.8262
  26   2.0000      -0.447231       -12.1698
  27   2.0000      -0.444451       -12.0941
  28   2.0000      -0.443974       -12.0811
  29   2.0000      -0.435893       -11.8612
  30   2.0000      -0.421713       -11.4754
  31   2.0000      -0.412830       -11.2337
  32   2.0000      -0.404197       -10.9988
  33   2.0000      -0.401567       -10.9272
  34   2.0000      -0.397108       -10.8059
  35   2.0000      -0.385821       -10.4987
  36   2.0000      -0.383963       -10.4482
  37   2.0000      -0.311081        -8.4649
  38   2.0000      -0.273798        -7.4504
  39   2.0000      -0.259034        -7.0487
  40   2.0000      -0.256001        -6.9661
  41   0.0000      -0.095579        -2.6008
  42   0.0000       0.024535         0.6676
  43   0.0000       0.035986         0.9792
  44   0.0000       0.072649         1.9769
  45   0.0000       0.090060         2.4507

MULLIKEN ATOMIC CHARGES
-----------------------
   0 C :    0.520207
   1 C :    0.103592
   2 O :   -0.312702
   3 F :   -0.159331
   4 F :   -0.180067
   5 F :   -0.184552
   6 O :   -0.379124
   7 C :    0.151996
   8 C :   -0.009816
   9 N :   -0.202267
  10 H :    0.082768
  11 H :    0.068301
  12 H :    0.044541
  13 H :    0.030402
  14 H :    0.068697
  15 H :    0.105622
  16 H :    0.131090
  17 H :    0.120643
Sum of atomic charges:    0.0000000

LOEWDIN ATOMIC CHARGES
----------------------
   0 C :    0.136500
   1 C :   -0.029689
   2 O :   -0.233500
   3 F :   -0.051771
   4 F :   -0.068547
   5 F :   -0.071300
   6 O :   -0.234741
   7 C :    0.226840
   8 C :   -0.058306
   9 N :   -0.008417
  10 H :    0.036486
  11 H :    0.031175
  12 H :    0.055480
  13 H :    0.031071
  14 H :    0.051696
  15 H :    0.062774
  16 H :    0.054258
  17 H :    0.069990

  Mayer bond orders larger than 0.100000
B(  0-C ,  1-C ) :   0.8551 B(  0-C ,  3-F ) :   1.1606 B(  0-C ,  4-F ) :   1.1312
B(  0-C ,  5-F ) :   1.1238 B(  1-C ,  2-O ) :   1.8455 B(  1-C ,  6-O ) :   1.5038
B(  2-O ,  6-O ) :   0.1233 B(  2-O , 16-H ) :   0.1448 B(  6-O ,  7-C ) :   0.3581
B(  7-C ,  8-C ) :   1.1826 B(  7-C ,  9-N ) :   0.3257 B(  7-C , 10-H ) :   0.9410
B(  7-C , 11-H ) :   0.9581 B(  8-C , 12-H ) :   0.9223 B(  8-C , 13-H ) :   0.9646
B(  8-C , 14-H ) :   0.9482 B(  9-N , 15-H ) :   0.9680 B(  9-N , 16-H ) :   0.9044
B(  9-N , 17-H ) :   0.9738

Dispersion correction           -0.023777062
FINAL SINGLE POINT ENERGY      -661.109117035030
Dispersion correction             ... done (  0.1 sec)

DIPOLE MOMENT
-------------

Method             : SCF
Type of density    : Electron Density
Multiplicity       :   1
Irrep              :   0
Energy             :  -661.0853399727739088 Eh
Basis              : AO
                                X                 Y                 Z
Electronic contribution:     -0.422996089      16.452857350     -18.149608801
Nuclear contribution   :      0.236896476     -18.168780675      20.264013558
                        -----------------------------------------
Total Dipole Moment    :     -0.186099612      -1.715923325       2.114404757
                        -----------------------------------------
Magnitude (a.u.)       :      2.729419975
Magnitude (Debye)      :      6.937634234

Rotational constants in cm-1:             0.072804             0.022864             0.020252
Rotational constants in MHz :          2182.594845           685.453907           607.139085

                             ****ORCA TERMINATED NORMALLY****
TOTAL RUN TIME: 0 days 0 hours 0 minutes 27 seconds 405 msec
