                         Program Version 6.1.0  -  RELEASE   -
|  1> ! B3LYP def2-SVP d3 EnGrad
|  2> %pal nprocs 6 end
|  3> *xyz 0 1
|  4> H   -1.72553593658861 -2.73243918709445 1.96481224619867
|  5> O   -0.97371445312841 -2.94966314166987 2.53357314823646
|  6> O   0.73098729320522 -4.33553100615774 0.57697526650621
|  7> S   0.56393500160194 -3.01151848443208 0.01663783647659
|  8> Cl   1.73665076806416 -2.93859338509947 -1.72098653777469
|  9> Cl   1.62959793728626 -1.63976036564593 1.15332652506618
| 10> O   -0.72614926545262 -2.45157586004411 -0.32825832479069
| 11> H   -0.93693234498795 -3.91567256985634 2.49836284008126
| 12> *
| 13>
| 14>                          ****END OF INPUT****

CARTESIAN COORDINATES (ANGSTROEM)
---------------------------------
  H     -1.725536   -2.732439    1.964812
  O     -0.973714   -2.949663    2.533573
  O      0.730987   -4.335531    0.576975
  S      0.563935   -3.011518    0.016638
  Cl     1.736651   -2.938593   -1.720987
  Cl     1.629598   -1.639760    1.153327
  O     -0.726149   -2.451576   -0.328258
  H     -0.936932   -3.915673    2.498363

 Total Charge           Charge          ....    0
 Multiplicity           Mult            ....    1
 Number of Electrons    NEL             ....   76
 Basis Dimension        Dim             ....  106

ORBITAL ENERGIES
----------------

  NO   OCC          E(Eh)            E(eV)
   0   2.0000    -101.545806     -2763.2019
   1   2.0000    -101.542631     -2763.1155
   2   2.0000     -89.139136     -2425.5992
   3   2.0000     -19.191288      -522.2215
   4   2.0000     -19.191145      -522.2176
   5   2.0000     -19.127907      -520.4968
   6   2.0000      -9.501418      -258.5467
   7   2.0000      -9.498130      -258.4573
   8   2.0000      -8.203325      -223.2238
   9   2.0000      -7.271422      -197.8654
  10   2.0000      -7.267828      -197.7677
  11   2.0000      -7.259749      -197.5478
  12   2.0000      -7.259687      -197.5461
  13   2.0000      -7.256749      -197.4662
  14   2.0000      -7.256521      -197.4600
  15   2.0000      -6.172123      -167.9520
  16   2.0000      -6.171380      -167.9318
  17   2.0000      -6.169345      -167.8764
  18   2.0000      -1.166540       -31.7432
  19   2.0000      -1.058578       -28.8054
  20   2.0000      -0.987610       -26.8742
  21   2.0000      -0.893401       -24.3107
  22   2.0000      -0.858658       -23.3653
  23   2.0000      -0.659004       -17.9324
  24   2.0000      -0.551764       -15.0143
  25   2.0000      -0.533272       -14.5111
  26   2.0000      -0.520784       -14.1713
  27   2.0000      -0.505515       -13.7558
  28   2.0000      -0.401150       -10.9158
  29   2.0000      -0.397269       -10.8103
  30   2.0000      -0.392806       -10.6888
  31   2.0000      -0.382724       -10.4145
  32   2.0000      -0.373420       -10.1613
  33   2.0000      -0.371052       -10.0968
  34   2.0000      -0.339981        -9.2514
  35   2.0000      -0.338389        -9.2080
  36   2.0000      -0.335387        -9.1263
  37   2.0000      -0.298390        -8.1196
  38   0.0000      -0.131052        -3.5661
  39   0.0000      -0.049767        -1.3542
  40   0.0000       0.037586         1.0228
  41   0.0000       0.063076         1.7164
  42   0.0000       0.076523         2.0823

MULLIKEN ATOMIC CHARGES
-----------------------
   0 H :    0.154885
   1 O :   -0.295672
   2 O :   -0.365752
   3 S :    0.856784
   4 Cl:   -0.086174
   5 Cl:   -0.049390
   6 O :   -0.369211
   7 H :    0.154529
Sum of atomic charges:   -0.0000000

LOEWDIN ATOMIC CHARGES
----------------------
   0 H :    0.069928
   1 O :   -0.148021
   2 O :   -0.424506
   3 S :    0.990864
   4 Cl:   -0.085025
   5 Cl:   -0.047611
   6 O :   -0.426654
   7 H :    0.071024

  Mayer bond orders larger than 0.100000
B(  0-H ,  1-O ) :   0.9952 B(  1-O ,  7-H ) :   0.9960 B(  2-O ,  3-S ) :   1.7144
B(  2-O ,  4-Cl) :   0.1073 B(  2-O ,  5-Cl) :   0.1106 B(  3-S ,  4-Cl) :   0.8332
B(  3-S ,  5-Cl) :   0.8626 B(  3-S ,  6-O ) :   1.7094 B(  4-Cl,  6-O ) :   0.1065
B(  5-Cl,  6-O ) :   0.1103

Dispersion correction           -0.016169285
FINAL SINGLE POINT ENERGY     -1544.548179854752
Dispersion correction             ... done (  0.1 sec)

DIPOLE MOMENT
-------------

Method             : SCF
Type of density    : Electron Density
Multiplicity       :   1
Irrep              :   0
Energy             : -1544.5320105694238464 Eh
Basis              : AO
                                X                 Y                 Z
Electronic contribution:      6.416835050       2.242638833      -5.415426897
Nuclear contribution   :     -6.428902444      -2.331974289       5.142270634
                        -----------------------------------------
Total Dipole Moment    :     -0.012067394      -0.089335455      -0.273156263
                        -----------------------------------------
Magnitude (a.u.)       :      0.287646988
Magnitude (Debye)      :      0.731140539

Rotational constants in cm-1:             0.089192             0.044868             0.036765
Rotational constants in MHz :          2673.916508          1345.120087          1102.199113

                             ****ORCA TERMINATED NORMALLY****
TOTAL RUN TIME: 0 days 0 hours 0 minutes 11 seconds 200 msec
