                         Program Version 6.1.0  -  RELEASE   -
|  1> ! B3LYP def2-SVP d3 EnGrad
|  2> %pal nprocs 6 end
|  3> *xyz 0 1
|  4> C   0.00224130092588 -0.17418931461008 1.16137955341831
|  5> H   0.01053740582769 -0.50065368678363 0.11558296186305
|  6> H   0.97210569274664 -0.07729322938096 1.65773297096365
|  7> C   -1.14044871051647 0.09213211841423 1.80005796982814
|  8> C   -2.51338135328065 -0.01083179200358 1.20540497896322
|  9> H   -1.09405455204508 0.41615722734127 2.8483863119424
| 10> H   -3.14068060454944 -0.72210498174872 1.77152123139776
| 11> H   -3.03616011579616 0.96145171638721 1.24088772075545
| 12> H   -2.4789440633124 -0.34330205761573 0.15607230086803
| 13> *
| 14>
| 15>                          ****END OF INPUT****

CARTESIAN COORDINATES (ANGSTROEM)
---------------------------------
  C      0.002241   -0.174189    1.161380
  H      0.010537   -0.500654    0.115583
  H      0.972106   -0.077293    1.657733
  C     -1.140449    0.092132    1.800058
  C     -2.513381   -0.010832    1.205405
  H     -1.094055    0.416157    2.848386
  H     -3.140681   -0.722105    1.771521
  H     -3.036160    0.961452    1.240888
  H     -2.478944   -0.343302    0.156072

 Total Charge           Charge          ....    0
 Multiplicity           Mult            ....    1
 Number of Electrons    NEL             ....   24
 Basis Dimension        Dim             ....   72

ORBITAL ENERGIES
----------------

  NO   OCC          E(Eh)            E(eV)
   0   2.0000     -10.186978      -277.2018
   1   2.0000     -10.183424      -277.1051
   2   2.0000     -10.175184      -276.8808
   3   2.0000      -0.772937       -21.0327
   4   2.0000      -0.672826       -18.3085
   5   2.0000      -0.542753       -14.7691
   6   2.0000      -0.460777       -12.5384
   7   2.0000      -0.417390       -11.3578
   8   2.0000      -0.407787       -11.0965
   9   2.0000      -0.368241       -10.0203
  10   2.0000      -0.342167        -9.3108
  11   2.0000      -0.254496        -6.9252
  12   0.0000       0.019015         0.5174
  13   0.0000       0.074178         2.0185
  14   0.0000       0.097615         2.6562
  15   0.0000       0.109453         2.9784
  16   0.0000       0.139067         3.7842

MULLIKEN ATOMIC CHARGES
-----------------------
   0 C :   -0.033388
   1 H :    0.010085
   2 H :    0.018104
   3 C :   -0.108618
   4 C :    0.055188
   5 H :    0.002683
   6 H :    0.022955
   7 H :    0.023086
   8 H :    0.009905
Sum of atomic charges:   -0.0000000

LOEWDIN ATOMIC CHARGES
----------------------
   0 C :   -0.069841
   1 H :    0.018890
   2 H :    0.022308
   3 C :   -0.030552
   4 C :   -0.056387
   5 H :    0.022984
   6 H :    0.032679
   7 H :    0.032766
   8 H :    0.027153

  Mayer bond orders larger than 0.100000
B(  0-C ,  1-H ) :   0.9526 B(  0-C ,  2-H ) :   0.9524 B(  0-C ,  3-C ) :   2.0297
B(  3-C ,  4-C ) :   1.0769 B(  3-C ,  5-H ) :   0.9603 B(  4-C ,  6-H ) :   0.9549
B(  4-C ,  7-H ) :   0.9548 B(  4-C ,  8-H ) :   0.9664

Dispersion correction           -0.008019771
FINAL SINGLE POINT ENERGY      -117.743884162137
Dispersion correction             ... done (  0.1 sec)

DIPOLE MOMENT
-------------

Method             : SCF
Type of density    : Electron Density
Multiplicity       :   1
Irrep              :   0
Energy             :  -117.7358643907552533 Eh
Basis              : AO
                                X                 Y                 Z
Electronic contribution:      1.020306216       0.083555982       0.467519043
Nuclear contribution   :     -1.176103409      -0.064240643      -0.436615987
                        -----------------------------------------
Total Dipole Moment    :     -0.155797193       0.019315339       0.030903056
                        -----------------------------------------
Magnitude (a.u.)       :      0.160002646
Magnitude (Debye)      :      0.406694405

Rotational constants in cm-1:             1.552422             0.307347             0.269481
Rotational constants in MHz :         46540.451382          9214.020399          8078.830513

                             ****ORCA TERMINATED NORMALLY****
TOTAL RUN TIME: 0 days 0 hours 0 minutes 7 seconds 678 msec
