                         Program Version 6.1.0  -  RELEASE   -
|  1> ! B3LYP def2-SVP d3 EnGrad
|  2> %pal nprocs 6 end
|  3> *xyz 0 1
|  4> C   -1.39595709364414 0.32760183752831 0.22838680193153
|  5> C   0.07260685571999 -0.11680191657143 0.20160410573765
|  6> H   -1.7402404574553 0.65123866939359 -0.76705590903824
|  7> H   -2.03601417737575 -0.50088264264377 0.56852383020242
|  8> C   0.9847549170691 1.04525111926211 -0.21406488226431
|  9> H   0.74604013374204 1.406914777665 -1.22716270634232
| 10> H   2.03810951468346 0.72627824816597 -0.19385892115344
| 11> H   0.87132289692013 1.89617403397747 0.47989481294313
| 12> C   0.25909739777461 -1.31327277310697 -0.73143195505071
| 13> H   -0.3704082038202 -2.15290376672545 -0.39932091214732
| 14> H   1.30809081757845 -1.64613047469042 -0.71421706959066
| 15> H   -0.01279320319213 -1.05544954313058 -1.76651390813757
| 16> O   0.45598963544879 -0.5879107422553 1.4956768236714
| 17> H   0.35379853893318 0.14491346665833 2.1175384965836
| 18> H   -1.53439767238221 1.17497980647316 0.92200150265487
| 19> *
| 20>
| 21>                          ****END OF INPUT****

CARTESIAN COORDINATES (ANGSTROEM)
---------------------------------
  C     -1.395957    0.327602    0.228387
  C      0.072607   -0.116802    0.201604
  H     -1.740240    0.651239   -0.767056
  H     -2.036014   -0.500883    0.568524
  C      0.984755    1.045251   -0.214065
  H      0.746040    1.406915   -1.227163
  H      2.038110    0.726278   -0.193859
  H      0.871323    1.896174    0.479895
  C      0.259097   -1.313273   -0.731432
  H     -0.370408   -2.152904   -0.399321
  H      1.308091   -1.646130   -0.714217
  H     -0.012793   -1.055450   -1.766514
  O      0.455990   -0.587911    1.495677
  H      0.353799    0.144913    2.117538
  H     -1.534398    1.174980    0.922002

 Total Charge           Charge          ....    0
 Multiplicity           Mult            ....    1
 Number of Electrons    NEL             ....   42
 Basis Dimension        Dim             ....  120

ORBITAL ENERGIES
----------------

  NO   OCC          E(Eh)            E(eV)
   0   2.0000     -19.115941      -520.1712
   1   2.0000     -10.233093      -278.4566
   2   2.0000     -10.175094      -276.8784
   3   2.0000     -10.175031      -276.8767
   4   2.0000     -10.169757      -276.7332
   5   2.0000      -0.997556       -27.1449
   6   2.0000      -0.774162       -21.0660
   7   2.0000      -0.679255       -18.4835
   8   2.0000      -0.678289       -18.4572
   9   2.0000      -0.559614       -15.2279
  10   2.0000      -0.482747       -13.1362
  11   2.0000      -0.445980       -12.1357
  12   2.0000      -0.444188       -12.0870
  13   2.0000      -0.405541       -11.0353
  14   2.0000      -0.392707       -10.6861
  15   2.0000      -0.375616       -10.2210
  16   2.0000      -0.361806        -9.8452
  17   2.0000      -0.349677        -9.5152
  18   2.0000      -0.343951        -9.3594
  19   2.0000      -0.312652        -8.5077
  20   2.0000      -0.262294        -7.1374
  21   0.0000       0.041493         1.1291
  22   0.0000       0.091413         2.4875
  23   0.0000       0.097184         2.6445
  24   0.0000       0.114562         3.1174
  25   0.0000       0.122152         3.3239

MULLIKEN ATOMIC CHARGES
-----------------------
   0 C :    0.063229
   1 C :   -0.074713
   2 H :    0.002086
   3 H :    0.011755
   4 C :    0.063210
   5 H :    0.001971
   6 H :    0.011899
   7 H :   -0.009710
   8 C :    0.073686
   9 H :    0.009173
  10 H :    0.009152
  11 H :    0.000546
  12 O :   -0.305124
  13 H :    0.152524
  14 H :   -0.009687
Sum of atomic charges:    0.0000000

LOEWDIN ATOMIC CHARGES
----------------------
   0 C :   -0.057447
   1 C :    0.031054
   2 H :    0.023281
   3 H :    0.024077
   4 C :   -0.057411
   5 H :    0.023242
   6 H :    0.024083
   7 H :    0.015586
   8 C :   -0.046000
   9 H :    0.024755
  10 H :    0.024701
  11 H :    0.021949
  12 O :   -0.134752
  13 H :    0.067297
  14 H :    0.015584

  Mayer bond orders larger than 0.100000
B(  0-C ,  1-C ) :   1.0552 B(  0-C ,  2-H ) :   0.9567 B(  0-C ,  3-H ) :   0.9603
B(  0-C , 14-H ) :   0.9556 B(  1-C ,  4-C ) :   1.0558 B(  1-C ,  8-C ) :   1.0495
B(  1-C , 12-O ) :   1.0064 B(  4-C ,  5-H ) :   0.9567 B(  4-C ,  6-H ) :   0.9603
B(  4-C ,  7-H ) :   0.9554 B(  8-C ,  9-H ) :   0.9591 B(  8-C , 10-H ) :   0.9591
B(  8-C , 11-H ) :   0.9632 B( 12-O , 13-H ) :   0.9826

Dispersion correction           -0.018117226
FINAL SINGLE POINT ENERGY      -233.368281556344
Dispersion correction             ... done (  0.0 sec)

DIPOLE MOMENT
-------------

Method             : SCF
Type of density    : Electron Density
Multiplicity       :   1
Irrep              :   0
Energy             :  -233.3501643298554313 Eh
Basis              : AO
                                X                 Y                 Z
Electronic contribution:      0.921304641      -1.259664308       2.905144421
Nuclear contribution   :     -1.102149548       1.793637574      -3.020792964
                        -----------------------------------------
Total Dipole Moment    :     -0.180844908       0.533973266      -0.115648543
                        -----------------------------------------
Magnitude (a.u.)       :      0.575505790
Magnitude (Debye)      :      1.462819467

Rotational constants in cm-1:             0.156683             0.155864             0.149466
Rotational constants in MHz :          4697.223922          4672.691722          4480.868098

                             ****ORCA TERMINATED NORMALLY****
TOTAL RUN TIME: 0 days 0 hours 0 minutes 16 seconds 442 msec
