                         Program Version 6.1.0  -  RELEASE   -
|  1> ! B3LYP def2-SVP d3 EnGrad
|  2> %pal nprocs 6 end
|  3> *xyz 0 1
|  4> C   0.61573028047072 -0.15364523896039 0.3814272433306
|  5> C   1.13031553510508 1.05132794887388 -0.12072251390159
|  6> C   2.47716046300012 1.12735720939239 -0.49552676183219
|  7> C   3.32247741279276 0.02416948441912 -0.37226611285923
|  8> C   2.80575043265471 -1.17421928465001 0.13626752046021
|  9> C   1.46678342015484 -1.26578995175754 0.50740799237424
| 10> O   -0.66275474373336 -0.34874923006317 0.80446866511203
| 11> C   -1.72734683717688 0.52879942220178 0.45429491886137
| 12> C   -2.7049189360623 -0.18607344085521 -0.4318887553646
| 13> C   -3.99950074180488 -0.34544368958947 -0.1504583378915
| 14> H   0.50454321496508 1.93914261554279 -0.2150203259831
| 15> H   2.86526655588048 2.07249275828957 -0.8845829331256
| 16> H   4.3720496062989 0.09529351473633 -0.66592358598396
| 17> H   3.45249446667813 -2.04933523146845 0.24207805540175
| 18> H   1.04444532257447 -2.1921189422124 0.90186238802453
| 19> H   -2.21471040124914 0.85742169305094 1.38722076767908
| 20> H   -2.28717160152658 -0.58630042167194 -1.36389743518558
| 21> H   -4.67735741451438 -0.85970434756511 -0.83737878197906
| 22> H   -4.4324559835291 0.03709553696556 0.78033476434302
| 23> H   -1.35080005097866 1.42827959532132 -0.05769677148041
| 24> *
| 25>
| 26>                          ****END OF INPUT****

CARTESIAN COORDINATES (ANGSTROEM)
---------------------------------
  C      0.615730   -0.153645    0.381427
  C      1.130316    1.051328   -0.120723
  C      2.477160    1.127357   -0.495527
  C      3.322477    0.024169   -0.372266
  C      2.805750   -1.174219    0.136268
  C      1.466783   -1.265790    0.507408
  O     -0.662755   -0.348749    0.804469
  C     -1.727347    0.528799    0.454295
  C     -2.704919   -0.186073   -0.431889
  C     -3.999501   -0.345444   -0.150458
  H      0.504543    1.939143   -0.215020
  H      2.865267    2.072493   -0.884583
  H      4.372050    0.095294   -0.665924
  H      3.452494   -2.049335    0.242078
  H      1.044445   -2.192119    0.901862
  H     -2.214710    0.857422    1.387221
  H     -2.287172   -0.586300   -1.363897
  H     -4.677357   -0.859704   -0.837379
  H     -4.432456    0.037096    0.780335
  H     -1.350800    1.428280   -0.057697

 Total Charge           Charge          ....    0
 Multiplicity           Mult            ....    1
 Number of Electrons    NEL             ....   72
 Basis Dimension        Dim             ....  190

ORBITAL ENERGIES
----------------

  NO   OCC          E(Eh)            E(eV)
   0   2.0000     -19.156890      -521.2855
   1   2.0000     -10.247457      -278.8475
   2   2.0000     -10.245283      -278.7883
   3   2.0000     -10.195156      -277.4243
   4   2.0000     -10.191415      -277.3225
   5   2.0000     -10.188097      -277.2322
   6   2.0000     -10.186404      -277.1861
   7   2.0000     -10.184538      -277.1354
   8   2.0000     -10.179165      -276.9892
   9   2.0000     -10.178802      -276.9793
  10   2.0000      -1.051007       -28.5994
  11   2.0000      -0.840221       -22.8636
  12   2.0000      -0.789041       -21.4709
  13   2.0000      -0.736397       -20.0384
  14   2.0000      -0.731282       -19.8992
  15   2.0000      -0.679450       -18.4888
  16   2.0000      -0.602294       -16.3892
  17   2.0000      -0.589189       -16.0326
  18   2.0000      -0.559757       -15.2318
  19   2.0000      -0.535739       -14.5782
  20   2.0000      -0.492043       -13.3892
  21   2.0000      -0.479981       -13.0610
  22   2.0000      -0.461808       -12.5664
  23   2.0000      -0.455679       -12.3997
  24   2.0000      -0.436705       -11.8834
  25   2.0000      -0.417331       -11.3561
  26   2.0000      -0.403250       -10.9730
  27   2.0000      -0.386703       -10.5227
  28   2.0000      -0.364656        -9.9228
  29   2.0000      -0.361534        -9.8378
  30   2.0000      -0.355544        -9.6749
  31   2.0000      -0.329052        -8.9540
  32   2.0000      -0.312961        -8.5161
  33   2.0000      -0.274150        -7.4600
  34   2.0000      -0.252016        -6.8577
  35   2.0000      -0.218626        -5.9491
  36   0.0000      -0.005409        -0.1472
  37   0.0000      -0.003088        -0.0840
  38   0.0000       0.013018         0.3542
  39   0.0000       0.062153         1.6913
  40   0.0000       0.079517         2.1638

MULLIKEN ATOMIC CHARGES
-----------------------
   0 C :    0.220244
   1 C :   -0.077630
   2 C :    0.016333
   3 C :    0.019103
   4 C :    0.018156
   5 C :   -0.015557
   6 O :   -0.325824
   7 C :    0.285645
   8 C :   -0.083963
   9 C :   -0.026719
  10 H :   -0.027282
  11 H :   -0.019219
  12 H :   -0.022568
  13 H :   -0.016343
  14 H :   -0.022105
  15 H :    0.005255
  16 H :    0.010779
  17 H :    0.027805
  18 H :    0.019380
  19 H :    0.014508
Sum of atomic charges:   -0.0000000

LOEWDIN ATOMIC CHARGES
----------------------
   0 C :    0.055020
   1 C :   -0.079829
   2 C :   -0.015910
   3 C :   -0.051443
   4 C :   -0.016520
   5 C :   -0.049301
   6 O :   -0.104800
   7 C :    0.095056
   8 C :   -0.038469
   9 C :   -0.046468
  10 H :    0.023305
  11 H :    0.026398
  12 H :    0.024430
  13 H :    0.027438
  14 H :    0.030092
  15 H :    0.022348
  16 H :    0.028827
  17 H :    0.027222
  18 H :    0.022913
  19 H :    0.019691

  Mayer bond orders larger than 0.100000
B(  0-C ,  1-C ) :   1.3259 B(  0-C ,  5-C ) :   1.3603 B(  0-C ,  6-O ) :   1.0940
B(  1-C ,  2-C ) :   1.3749 B(  1-C , 10-H ) :   0.9826 B(  2-C ,  3-C ) :   1.3993
B(  2-C , 11-H ) :   0.9777 B(  3-C ,  4-C ) :   1.3593 B(  3-C , 12-H ) :   0.9874
B(  4-C ,  5-C ) :   1.3970 B(  4-C , 13-H ) :   0.9829 B(  5-C , 14-H ) :   0.9870
B(  6-O ,  7-C ) :   0.9240 B(  7-C ,  8-C ) :   1.0520 B(  7-C , 15-H ) :   0.9420
B(  7-C , 19-H ) :   0.9216 B(  8-C ,  9-C ) :   2.0077 B(  8-C , 16-H ) :   0.9589
B(  9-C , 17-H ) :   0.9508 B(  9-C , 18-H ) :   0.9538

Dispersion correction           -0.032779610
FINAL SINGLE POINT ENERGY      -423.624568437118
Dispersion correction             ... done (  0.0 sec)

DIPOLE MOMENT
-------------

Method             : SCF
Type of density    : Electron Density
Multiplicity       :   1
Irrep              :   0
Energy             :  -423.5917888268754723 Eh
Basis              : AO
                                X                 Y                 Z
Electronic contribution:      4.154266425      -1.000349194       1.226385825
Nuclear contribution   :     -4.478746445       1.360569139      -1.431101266
                        -----------------------------------------
Total Dipole Moment    :     -0.324480020       0.360219945      -0.204715441
                        -----------------------------------------
Magnitude (a.u.)       :      0.526264291
Magnitude (Debye)      :      1.337657522

Rotational constants in cm-1:             0.136632             0.021492             0.019664
Rotational constants in MHz :          4096.117998           644.328872           589.504766

                             ****ORCA TERMINATED NORMALLY****
TOTAL RUN TIME: 0 days 0 hours 0 minutes 32 seconds 204 msec
