                         Program Version 6.1.0  -  RELEASE   -
|  1> ! B3LYP def2-SVP d3 EnGrad
|  2> %pal nprocs 6 end
|  3> *xyz 0 1
|  4> N   1.28677770235762 -0.87246875012083 -0.16169174112295
|  5> B   1.74605035532338 0.30081508938482 0.65561932790681
|  6> B   -1.51800813745231 -0.16999230030316 0.05920442168148
|  7> N   -2.10543427615026 0.55531590111168 -0.97440456255349
|  8> H   1.39918311110972 -1.80177477471302 0.2372348134419
|  9> H   1.52882375960011 -0.89238854220002 -1.14945909594291
| 10> H   -0.16881874885593 -0.56069475682647 -0.09082925723197
| 11> H   2.20542190029755 0.01668484040582 1.7453595235772
| 12> H   2.2724382340545 1.18671877398099 0.00735170082496
| 13> H   0.56138753564438 0.9134567874822 1.03449837624859
| 14> H   -0.31127419970629 0.45457719643019 0.61542226253001
| 15> H   -2.21027570964081 -0.84908347501242 0.77898368175988
| 16> H   -3.10237076155125 0.55260639907027 -1.16254265826219
| 17> H   -1.58390076503043 1.16622761130994 -1.59474679285731
| 18> *
| 19>
| 20>                          ****END OF INPUT****

CARTESIAN COORDINATES (ANGSTROEM)
---------------------------------
  N      1.286778   -0.872469   -0.161692
  B      1.746050    0.300815    0.655619
  B     -1.518008   -0.169992    0.059204
  N     -2.105434    0.555316   -0.974405
  H      1.399183   -1.801775    0.237235
  H      1.528824   -0.892389   -1.149459
  H     -0.168819   -0.560695   -0.090829
  H      2.205422    0.016685    1.745360
  H      2.272438    1.186719    0.007352
  H      0.561388    0.913457    1.034498
  H     -0.311274    0.454577    0.615422
  H     -2.210276   -0.849083    0.778984
  H     -3.102371    0.552606   -1.162543
  H     -1.583901    1.166228   -1.594747

 Total Charge           Charge          ....    0
 Multiplicity           Mult            ....    1
 Number of Electrons    NEL             ....   34
 Basis Dimension        Dim             ....  106

ORBITAL ENERGIES
----------------

  NO   OCC          E(Eh)            E(eV)
   0   2.0000     -14.343821      -390.3152
   1   2.0000     -14.333460      -390.0333
   2   2.0000      -6.754510      -183.7996
   3   2.0000      -6.703622      -182.4148
   4   2.0000      -0.868591       -23.6356
   5   2.0000      -0.855949       -23.2915
   6   2.0000      -0.570984       -15.5373
   7   2.0000      -0.523070       -14.2335
   8   2.0000      -0.511827       -13.9275
   9   2.0000      -0.497807       -13.5460
  10   2.0000      -0.456157       -12.4127
  11   2.0000      -0.380489       -10.3536
  12   2.0000      -0.365784        -9.9535
  13   2.0000      -0.327104        -8.9009
  14   2.0000      -0.282922        -7.6987
  15   2.0000      -0.278263        -7.5719
  16   2.0000      -0.247699        -6.7402
  17   0.0000      -0.037263        -1.0140
  18   0.0000       0.040281         1.0961
  19   0.0000       0.059363         1.6153
  20   0.0000       0.097614         2.6562
  21   0.0000       0.110359         3.0030

MULLIKEN ATOMIC CHARGES
-----------------------
   0 N :   -0.115656
   1 B :   -0.195605
   2 B :   -0.246549
   3 N :   -0.035284
   4 H :    0.125816
   5 H :    0.122476
   6 H :    0.172603
   7 H :   -0.054094
   8 H :   -0.057520
   9 H :   -0.024747
  10 H :    0.077236
  11 H :   -0.021281
  12 H :    0.123823
  13 H :    0.128782
Sum of atomic charges:   -0.0000000

LOEWDIN ATOMIC CHARGES
----------------------
   0 N :    0.065669
   1 B :   -0.335202
   2 B :   -0.178390
   3 N :    0.063052
   4 H :    0.080957
   5 H :    0.078457
   6 H :    0.077471
   7 H :   -0.042523
   8 H :   -0.045923
   9 H :    0.014936
  10 H :    0.091433
  11 H :   -0.039142
  12 H :    0.084851
  13 H :    0.084354

  Mayer bond orders larger than 0.100000
B(  0-N ,  1-B ) :   1.1091 B(  0-N ,  4-H ) :   0.9659 B(  0-N ,  5-H ) :   0.9664
B(  0-N ,  6-H ) :   0.3843 B(  1-B ,  7-H ) :   0.9572 B(  1-B ,  8-H ) :   0.9610
B(  1-B ,  9-H ) :   0.5617 B(  2-B ,  3-N ) :   1.6156 B(  2-B ,  6-H ) :   0.4971
B(  2-B , 10-H ) :   0.4332 B(  2-B , 11-H ) :   0.9634 B(  3-N , 12-H ) :   0.9565
B(  3-N , 13-H ) :   0.9461 B(  9-H , 10-H ) :   0.3763

Dispersion correction           -0.014643113
FINAL SINGLE POINT ENERGY      -164.955815517701
Dispersion correction             ... done (  0.1 sec)

DIPOLE MOMENT
-------------

Method             : SCF
Type of density    : Electron Density
Multiplicity       :   1
Irrep              :   0
Energy             :  -164.9411724047948553 Eh
Basis              : AO
                                X                 Y                 Z
Electronic contribution:     -2.574158878      -0.913230417      -2.196461717
Nuclear contribution   :      1.486644187       0.449020992       0.872895339
                        -----------------------------------------
Total Dipole Moment    :     -1.087514691      -0.464209426      -1.323566378
                        -----------------------------------------
Magnitude (a.u.)       :      1.774825781
Magnitude (Debye)      :      4.511248620

Rotational constants in cm-1:             0.456869             0.082020             0.079518
Rotational constants in MHz :         13696.581056          2458.897540          2383.886033

                             ****ORCA TERMINATED NORMALLY****
TOTAL RUN TIME: 0 days 0 hours 0 minutes 12 seconds 772 msec
