                         Program Version 6.1.0  -  RELEASE   -
|  1> ! B3LYP def2-SVP d3 EnGrad
|  2> %pal nprocs 6 end
|  3> *xyz 0 1
|  4> C   -1.42454747599125 -0.08142121622908 -0.4693037487134
|  5> C   2.16639138235621 -0.11979528283203 0.47632914738666
|  6> C   -2.35732663865895 0.55449356023676 0.29095841762446
|  7> C   -0.50849800429698 -1.02567574354142 0.05897934963137
|  8> C   1.65018430025491 0.60946915132263 -0.60359428982797
|  9> H   -3.07445159052126 1.25270819016768 -0.14784316498767
| 10> H   -2.41131381051921 0.38875266085115 1.37146918241966
| 11> H   -0.62056889095828 -1.36304252827459 1.08635392776714
| 12> H   0.70708995273529 1.13506616495993 -0.45942872592444
| 13> H   0.11427362433684 -1.62116734725839 -0.60570299289246
| 14> H   2.31769108863202 0.98258288362907 -1.38591579091549
| 15> H   -1.36061760978906 0.14134904250359 -1.54036831204147
| 16> H   3.27840791403771 -0.08378926172628 0.60318338129008
| 17> O   1.523285758382 -0.76953027380901 1.32488361918351
| 18> *
| 19>
| 20>                          ****END OF INPUT****

CARTESIAN COORDINATES (ANGSTROEM)
---------------------------------
  C     -1.424547   -0.081421   -0.469304
  C      2.166391   -0.119795    0.476329
  C     -2.357327    0.554494    0.290958
  C     -0.508498   -1.025676    0.058979
  C      1.650184    0.609469   -0.603594
  H     -3.074452    1.252708   -0.147843
  H     -2.411314    0.388753    1.371469
  H     -0.620569   -1.363043    1.086354
  H      0.707090    1.135066   -0.459429
  H      0.114274   -1.621167   -0.605703
  H      2.317691    0.982583   -1.385916
  H     -1.360618    0.141349   -1.540368
  H      3.278408   -0.083789    0.603183
  O      1.523286   -0.769530    1.324884

 Total Charge           Charge          ....    0
 Multiplicity           Mult            ....    1
 Number of Electrons    NEL             ....   46
 Basis Dimension        Dim             ....  124

ORBITAL ENERGIES
----------------

  NO   OCC          E(Eh)            E(eV)
   0   2.0000     -19.105488      -519.8867
   1   2.0000     -10.242267      -278.7063
   2   2.0000     -10.237682      -278.5815
   3   2.0000     -10.220481      -278.1134
   4   2.0000     -10.216789      -278.0130
   5   2.0000     -10.164170      -276.5811
   6   2.0000      -0.991971       -26.9929
   7   2.0000      -0.809349       -22.0235
   8   2.0000      -0.703447       -19.1418
   9   2.0000      -0.686963       -18.6932
  10   2.0000      -0.571168       -15.5423
  11   2.0000      -0.534543       -14.5457
  12   2.0000      -0.499251       -13.5853
  13   2.0000      -0.461404       -12.5554
  14   2.0000      -0.452740       -12.3197
  15   2.0000      -0.410979       -11.1833
  16   2.0000      -0.408842       -11.1251
  17   2.0000      -0.385824       -10.4988
  18   2.0000      -0.377275       -10.2662
  19   2.0000      -0.355129        -9.6636
  20   2.0000      -0.322428        -8.7737
  21   2.0000      -0.238945        -6.5020
  22   2.0000      -0.190543        -5.1849
  23   0.0000      -0.122126        -3.3232
  24   0.0000       0.022839         0.6215
  25   0.0000       0.040373         1.0986
  26   0.0000       0.065892         1.7930
  27   0.0000       0.084163         2.2902

MULLIKEN ATOMIC CHARGES
-----------------------
   0 C :   -0.062109
   1 C :    0.119177
   2 C :    0.002026
   3 C :    0.086083
   4 C :   -0.165921
   5 H :    0.044244
   6 H :    0.043078
   7 H :    0.066551
   8 H :    0.047270
   9 H :    0.069189
  10 H :    0.013249
  11 H :    0.021626
  12 H :    0.001784
  13 O :   -0.286246
Sum of atomic charges:   -0.0000000

LOEWDIN ATOMIC CHARGES
----------------------
   0 C :   -0.051968
   1 C :    0.052297
   2 C :    0.009999
   3 C :    0.126113
   4 C :   -0.182045
   5 H :    0.032109
   6 H :    0.032623
   7 H :    0.036962
   8 H :    0.027856
   9 H :    0.044359
  10 H :    0.017119
  11 H :    0.036009
  12 H :    0.009966
  13 O :   -0.191401

  Mayer bond orders larger than 0.100000
B(  0-C ,  2-C ) :   1.7202 B(  0-C ,  3-C ) :   1.3267 B(  0-C , 11-H ) :   0.9569
B(  1-C ,  4-C ) :   1.3739 B(  1-C , 12-H ) :   0.9245 B(  1-C , 13-O ) :   1.7366
B(  2-C ,  4-C ) :   0.1552 B(  2-C ,  5-H ) :   0.9543 B(  2-C ,  6-H ) :   0.9567
B(  3-C ,  4-C ) :   0.2692 B(  3-C ,  7-H ) :   0.9603 B(  3-C ,  9-H ) :   0.9504
B(  3-C , 13-O ) :   0.2974 B(  4-C ,  8-H ) :   0.9424 B(  4-C , 10-H ) :   0.9440

Dispersion correction           -0.018094056
FINAL SINGLE POINT ENERGY      -270.059812196367
Dispersion correction             ... done (  0.1 sec)

DIPOLE MOMENT
-------------

Method             : SCF
Type of density    : Electron Density
Multiplicity       :   1
Irrep              :   0
Energy             :  -270.0417181406772897 Eh
Basis              : AO
                                X                 Y                 Z
Electronic contribution:      1.598064928      -1.666384686       1.976632215
Nuclear contribution   :     -2.537530657       1.862843532      -2.525007186
                        -----------------------------------------
Total Dipole Moment    :     -0.939465729       0.196458846      -0.548374970
                        -----------------------------------------
Magnitude (a.u.)       :      1.105399042
Magnitude (Debye)      :      2.809701075

Rotational constants in cm-1:             0.220880             0.060962             0.054103
Rotational constants in MHz :          6621.805724          1827.599371          1621.965056

                             ****ORCA TERMINATED NORMALLY****
TOTAL RUN TIME: 0 days 0 hours 0 minutes 18 seconds 921 msec
