                         Program Version 6.1.0  -  RELEASE   -
|  1> ! B3LYP def2-SVP d3 EnGrad
|  2> %pal nprocs 6 end
|  3> *xyz 0 1
|  4> C   -1.18563486959722 -0.50959428838702 -0.6203405811901
|  5> O   -0.49725855465005 0.69330612843103 -0.38884905769359
|  6> Mg   0.04509996446242 0.8819704954604 1.38443030422138
|  7> Br   0.92162717688716 1.76326974136395 3.39093502470414
|  8> C   -0.50949015837283 -1.30777465461565 -1.74841709602407
|  9> C   -0.71164710582305 -2.68572354425068 -1.91435947655938
| 10> C   0.2846879920172 -0.62533564171516 -2.67688234627729
| 11> C   -0.13034580159474 -3.36778843383925 -2.98575407155378
| 12> H   -1.31979959880513 -3.2400719053361 -1.19598658096993
| 13> C   0.86311959870358 -1.30485709324127 -3.75273944732005
| 14> H   0.43699386193019 0.4451886056792 -2.53553030052737
| 15> C   0.65883239499263 -2.67833673635325 -3.91142522263301
| 16> H   -0.2934947168676 -4.44312929144234 -3.09618373329369
| 17> H   1.47761276053211 -0.75739148487117 -4.4726061214807
| 18> H   1.11242573554622 -3.21093286248644 -4.75124907295202
| 19> C   -2.63062956851741 -0.22714545862229 -1.07306426753694
| 20> C   -3.60682229415872 -1.23448673732418 -1.10529820606899
| 21> C   -2.97360880010363 1.05746445097984 -1.50757288443882
| 22> C   -4.90062716085256 -0.96016884859275 -1.55179231730042
| 23> H   -3.36089381600307 -2.24455672470058 -0.77080606626171
| 24> C   -4.26770351923433 1.33341872612471 -1.96142609261285
| 25> H   -2.20571475398664 1.83141926771353 -1.4835236404316
| 26> C   -5.23660098715331 0.32770622259564 -1.98297439242309
| 27> H   -5.65029085940288 -1.75589607232279 -1.56352503634254
| 28> H   -4.51899376918295 2.34218462622994 -2.29999832610789
| 29> H   -6.24885976660058 0.54319075929209 -2.33434126741854
| 30> C   -1.14042087644558 -1.25974604637903 0.73499629001096
| 31> C   -2.1201614178418 -1.02609615044238 1.72308450266829
| 32> C   0.02263026049651 -1.97170411145514 1.10551429172019
| 33> C   -1.947440496537 -1.49938844190715 3.0301529314989
| 34> H   -3.02282179806089 -0.47246510305395 1.45768082568814
| 35> C   0.18885239126278 -2.44183798825952 2.4131590512444
| 36> H   0.79327426717667 -2.15809965846277 0.35442373380468
| 37> C   -0.79547215939473 -2.20900689089344 3.37908390734854
| 38> H   -2.71719172930068 -1.30195218568652 3.77986468297844
| 39> H   1.09721831052741 -2.98802928454661 2.67811129635176
| 40> H   -0.65800187604747 -2.56676848468288 4.40148243317853
| 41> *
| 42>
| 43>                          ****END OF INPUT****

CARTESIAN COORDINATES (ANGSTROEM)
---------------------------------
  C     -1.185635   -0.509594   -0.620341
  O     -0.497259    0.693306   -0.388849
  Mg     0.045100    0.881970    1.384430
  Br     0.921627    1.763270    3.390935
  C     -0.509490   -1.307775   -1.748417
  C     -0.711647   -2.685724   -1.914359
  C      0.284688   -0.625336   -2.676882
  C     -0.130346   -3.367788   -2.985754
  H     -1.319800   -3.240072   -1.195987
  C      0.863120   -1.304857   -3.752739
  H      0.436994    0.445189   -2.535530
  C      0.658832   -2.678337   -3.911425
  H     -0.293495   -4.443129   -3.096184
  H      1.477613   -0.757391   -4.472606
  H      1.112426   -3.210933   -4.751249
  C     -2.630630   -0.227145   -1.073064
  C     -3.606822   -1.234487   -1.105298
  C     -2.973609    1.057464   -1.507573
  C     -4.900627   -0.960169   -1.551792
  H     -3.360894   -2.244557   -0.770806
  C     -4.267704    1.333419   -1.961426
  H     -2.205715    1.831419   -1.483524
  C     -5.236601    0.327706   -1.982974
  H     -5.650291   -1.755896   -1.563525
  H     -4.518994    2.342185   -2.299998
  H     -6.248860    0.543191   -2.334341
  C     -1.140421   -1.259746    0.734996
  C     -2.120161   -1.026096    1.723085
  C      0.022630   -1.971704    1.105514
  C     -1.947440   -1.499388    3.030153
  H     -3.022822   -0.472465    1.457681
  C      0.188852   -2.441838    2.413159
  H      0.793274   -2.158100    0.354424
  C     -0.795472   -2.209007    3.379084
  H     -2.717192   -1.301952    3.779865
  H      1.097218   -2.988029    2.678111
  H     -0.658002   -2.566768    4.401482

 Total Charge           Charge          ....    0
 Multiplicity           Mult            ....    1
 Number of Electrons    NEL             ....  184
 Basis Dimension        Dim             ....  405

ORBITAL ENERGIES
----------------

  NO   OCC          E(Eh)            E(eV)
   0   2.0000    -482.745228    -13136.1655
   1   2.0000     -62.428404     -1698.7632
   2   2.0000     -56.259121     -1530.8885
   3   2.0000     -56.258552     -1530.8730
   4   2.0000     -56.258413     -1530.8693
   5   2.0000     -46.863254     -1275.2140
   6   2.0000     -19.089727      -519.4579
   7   2.0000     -10.254237      -279.0320
   8   2.0000     -10.225796      -278.2580
   9   2.0000     -10.220114      -278.1034
  10   2.0000     -10.219643      -278.0906
  11   2.0000     -10.219091      -278.0756
  12   2.0000     -10.218651      -278.0636
  13   2.0000     -10.216474      -278.0044
  14   2.0000     -10.188904      -277.2542
  15   2.0000     -10.188672      -277.2479
  16   2.0000     -10.187268      -277.2097
  17   2.0000     -10.186893      -277.1994
  18   2.0000     -10.186151      -277.1793
  19   2.0000     -10.186071      -277.1771
  20   2.0000     -10.185229      -277.1542
  21   2.0000     -10.184778      -277.1419
  22   2.0000     -10.184742      -277.1409
  23   2.0000     -10.184247      -277.1275
  24   2.0000     -10.178971      -276.9839
  25   2.0000     -10.178401      -276.9684
  26   2.0000      -8.645840      -235.2653
  27   2.0000      -6.473751      -176.1597
  28   2.0000      -6.469330      -176.0394
  29   2.0000      -6.469177      -176.0353
  30   2.0000      -3.146994       -85.6341
  31   2.0000      -2.589179       -70.4552
  32   2.0000      -2.587657       -70.4137
  33   2.0000      -2.587563       -70.4112
  34   2.0000      -2.584117       -70.3174
  35   2.0000      -2.584069       -70.3161
  36   2.0000      -1.894891       -51.5626
  37   2.0000      -1.894792       -51.5599
  38   2.0000      -1.890264       -51.4367
  39   2.0000      -0.964082       -26.2340
  40   2.0000      -0.875580       -23.8257
  41   2.0000      -0.844755       -22.9870
  42   2.0000      -0.839477       -22.8433
  43   2.0000      -0.780505       -21.2386
  44   2.0000      -0.766524       -20.8582
  45   2.0000      -0.749598       -20.3976
  46   2.0000      -0.732039       -19.9198
  47   2.0000      -0.730630       -19.8815
  48   2.0000      -0.729912       -19.8619
  49   2.0000      -0.722134       -19.6503
  50   2.0000      -0.659392       -17.9430
  51   2.0000      -0.628343       -17.0981
  52   2.0000      -0.614406       -16.7188
  53   2.0000      -0.597544       -16.2600
  54   2.0000      -0.591422       -16.0934
  55   2.0000      -0.584593       -15.9076
  56   2.0000      -0.559120       -15.2144
  57   2.0000      -0.535992       -14.5851
  58   2.0000      -0.515409       -14.0250
  59   2.0000      -0.503884       -13.7114
  60   2.0000      -0.480565       -13.0768
  61   2.0000      -0.474792       -12.9198
  62   2.0000      -0.461615       -12.5612
  63   2.0000      -0.449818       -12.2402
  64   2.0000      -0.446864       -12.1598
  65   2.0000      -0.446323       -12.1451
  66   2.0000      -0.441016       -12.0007
  67   2.0000      -0.437180       -11.8963
  68   2.0000      -0.417086       -11.3495
  69   2.0000      -0.416003       -11.3200
  70   2.0000      -0.414117       -11.2687
  71   2.0000      -0.410652       -11.1744
  72   2.0000      -0.403133       -10.9698
  73   2.0000      -0.378716       -10.3054
  74   2.0000      -0.371596       -10.1116
  75   2.0000      -0.367836       -10.0093
  76   2.0000      -0.357570        -9.7300
  77   2.0000      -0.350982        -9.5507
  78   2.0000      -0.341486        -9.2923
  79   2.0000      -0.338986        -9.2243
  80   2.0000      -0.336023        -9.1437
  81   2.0000      -0.316970        -8.6252
  82   2.0000      -0.302293        -8.2258
  83   2.0000      -0.292215        -7.9516
  84   2.0000      -0.270123        -7.3504
  85   2.0000      -0.270074        -7.3491
  86   2.0000      -0.261452        -7.1145
  87   2.0000      -0.258408        -7.0316
  88   2.0000      -0.254726        -6.9315
  89   2.0000      -0.252426        -6.8689
  90   2.0000      -0.246142        -6.6979
  91   2.0000      -0.234042        -6.3686
  92   0.0000      -0.046884        -1.2758
  93   0.0000      -0.044535        -1.2119
  94   0.0000      -0.029171        -0.7938
  95   0.0000      -0.019821        -0.5393
  96   0.0000      -0.010984        -0.2989

MULLIKEN ATOMIC CHARGES
-----------------------
   0 C :    0.410660
   1 O :   -0.588645
   2 Mg:    0.591643
   3 Br:   -0.293437
   4 C :    0.019552
   5 C :   -0.024252
   6 C :   -0.002644
   7 C :    0.018956
   8 H :   -0.027255
   9 C :    0.030726
  10 H :   -0.009018
  11 C :    0.023785
  12 H :   -0.023809
  13 H :   -0.021360
  14 H :   -0.019985
  15 C :    0.017147
  16 C :   -0.019327
  17 C :   -0.003374
  18 C :    0.017951
  19 H :   -0.034542
  20 C :    0.032145
  21 H :   -0.006731
  22 C :    0.024042
  23 H :   -0.023106
  24 H :   -0.021799
  25 H :   -0.019685
  26 C :   -0.281455
  27 C :    0.018931
  28 C :    0.007086
  29 C :    0.049855
  30 H :    0.029472
  31 C :    0.050424
  32 H :    0.029733
  33 C :    0.046477
  34 H :    0.000646
  35 H :    0.000794
  36 H :    0.000400
Sum of atomic charges:    0.0000000

LOEWDIN ATOMIC CHARGES
----------------------
   0 C :    0.100500
   1 O :   -0.274379
   2 Mg:   -0.136736
   3 Br:    0.091851
   4 C :   -0.017514
   5 C :   -0.031164
   6 C :   -0.010040
   7 C :   -0.027421
   8 H :    0.020256
   9 C :   -0.024208
  10 H :    0.032389
  11 C :   -0.030181
  12 H :    0.025198
  13 H :    0.025863
  14 H :    0.025148
  15 C :   -0.017816
  16 C :   -0.027921
  17 C :   -0.012967
  18 C :   -0.027011
  19 H :    0.020625
  20 C :   -0.024550
  21 H :    0.033315
  22 C :   -0.030054
  23 H :    0.025422
  24 H :    0.025805
  25 H :    0.025233
  26 C :   -0.008067
  27 C :    0.012039
  28 C :    0.012950
  29 C :    0.008814
  30 H :    0.049087
  31 C :    0.008885
  32 H :    0.050561
  33 C :   -0.003987
  34 H :    0.037206
  35 H :    0.037215
  36 H :    0.035656

  Mayer bond orders larger than 0.100000
B(  0-C ,  1-O ) :   1.0597 B(  0-C ,  4-C ) :   0.9045 B(  0-C , 15-C ) :   0.8958
B(  0-C , 26-C ) :   0.8687 B(  1-O ,  2-Mg) :   0.8173 B(  2-Mg,  3-Br) :   1.1829
B(  2-Mg, 26-C ) :   0.1486 B(  4-C ,  5-C ) :   1.3706 B(  4-C ,  6-C ) :   1.4305
B(  5-C ,  7-C ) :   1.3828 B(  5-C ,  8-H ) :   0.9822 B(  6-C ,  9-C ) :   1.3441
B(  6-C , 10-H ) :   0.9793 B(  7-C , 11-C ) :   1.3790 B(  7-C , 12-H ) :   0.9808
B(  9-C , 11-C ) :   1.3787 B(  9-C , 13-H ) :   0.9838 B( 11-C , 14-H ) :   0.9847
B( 15-C , 16-C ) :   1.3627 B( 15-C , 17-C ) :   1.4410 B( 16-C , 18-C ) :   1.3886
B( 16-C , 19-H ) :   0.9842 B( 17-C , 20-C ) :   1.3377 B( 17-C , 21-H ) :   0.9763
B( 18-C , 22-C ) :   1.3725 B( 18-C , 23-H ) :   0.9814 B( 20-C , 22-C ) :   1.3841
B( 20-C , 24-H ) :   0.9838 B( 22-C , 25-H ) :   0.9848 B( 26-C , 27-C ) :   1.3408
B( 26-C , 28-C ) :   1.3277 B( 27-C , 29-C ) :   1.3411 B( 27-C , 30-H ) :   0.9723
B( 28-C , 31-C ) :   1.3466 B( 28-C , 32-H ) :   0.9744 B( 29-C , 33-C ) :   1.3737
B( 29-C , 34-H ) :   0.9835 B( 31-C , 33-C ) :   1.3647 B( 31-C , 35-H ) :   0.9841
B( 33-C , 36-H ) :   0.9865

Dispersion correction           -0.098444679
FINAL SINGLE POINT ENERGY     -3581.129837320730
Dispersion correction             ... done (  0.0 sec)

DIPOLE MOMENT
-------------

Method             : SCF
Type of density    : Electron Density
Multiplicity       :   1
Irrep              :   0
Energy             : -3581.0313926414210073 Eh
Basis              : AO
                                X                 Y                 Z
Electronic contribution:     27.644983248      32.707916757      44.537108370
Nuclear contribution   :    -28.106464337     -33.866750305     -44.375921756
                        -----------------------------------------
Total Dipole Moment    :     -0.461481089      -1.158833548       0.161186613
                        -----------------------------------------
Magnitude (a.u.)       :      1.257712651
Magnitude (Debye)      :      3.196851501

Rotational constants in cm-1:             0.009927             0.004925             0.004385
Rotational constants in MHz :           297.598656           147.641842           131.469607

                             ****ORCA TERMINATED NORMALLY****
TOTAL RUN TIME: 0 days 0 hours 1 minutes 26 seconds 170 msec
