                         Program Version 6.1.0  -  RELEASE   -
|  1> ! B3LYP def2-SVP d3 EnGrad
|  2> %pal nprocs 6 end
|  3> *xyz 0 2
|  4> C   0.39599100659751 0.42026368872825 0.2010986759395
|  5> C   0.62852291741089 1.84530435175646 -0.48067872488897
|  6> O   -0.0368359577652 2.77776710821778 0.16988962364986
|  7> H   0.67319671330564 0.5593354167487 1.25587149097731
|  8> H   0.32757330514943 1.66861637874571 -1.57408888022313
|  9> C   -1.02554996068479 -0.05997216024139 0.08563346737791
| 10> C   -2.066696034088 0.8228454013172 0.44363952419271
| 11> C   -1.36106823117956 -1.34146639027396 -0.37817130627085
| 12> C   -3.39814990089806 0.42005915934437 0.33280213456274
| 13> H   -1.74689267590642 1.8347963652115 0.72252806789438
| 14> C   -2.69835962741072 -1.74525284260365 -0.46957862043357
| 15> H   -0.56437232137769 -2.02736798023811 -0.67094568486727
| 16> C   -3.72545278744194 -0.86774677649352 -0.11225017297263
| 17> H   -4.1962255858162 1.12161925616548 0.59850284820324
| 18> H   -2.9367528227939 -2.75284020855301 -0.82618947863953
| 19> H   -4.77193297075281 -1.18279374996137 -0.1819262151216
| 20> C   2.16542930867093 2.10359821106313 -0.52942679562583
| 21> H   2.58137873129333 2.08026417447518 0.49325435627084
| 22> H   2.72708764169721 1.39612417279666 -1.16963602385986
| 23> H   2.30745249636115 3.12409452602944 -0.92165496984104
| 24> O   1.2732611274397 -0.59979144828211 -0.36526633997976
| 25> C   2.27090970513918 -1.10311185784106 0.35522395270714
| 26> O   2.47551299119508 -0.90131606593287 1.53193981911224
| 27> C   3.16987049472636 -1.96302704862346 -0.51504607231635
| 28> H   3.79917025725921 -1.30156852335366 -1.13365231170163
| 29> H   3.81687993733067 -2.58339472961354 0.11938812651457
| 30> H   2.57793123253897 -2.58918343858818 -1.19886448066042
| 31> *
| 32>
| 33>                          ****END OF INPUT****

CARTESIAN COORDINATES (ANGSTROEM)
---------------------------------
  C      0.395991    0.420264    0.201099
  C      0.628523    1.845304   -0.480679
  O     -0.036836    2.777767    0.169890
  H      0.673197    0.559335    1.255871
  H      0.327573    1.668616   -1.574089
  C     -1.025550   -0.059972    0.085633
  C     -2.066696    0.822845    0.443640
  C     -1.361068   -1.341466   -0.378171
  C     -3.398150    0.420059    0.332802
  H     -1.746893    1.834796    0.722528
  C     -2.698360   -1.745253   -0.469579
  H     -0.564372   -2.027368   -0.670946
  C     -3.725453   -0.867747   -0.112250
  H     -4.196226    1.121619    0.598503
  H     -2.936753   -2.752840   -0.826189
  H     -4.771933   -1.182794   -0.181926
  C      2.165429    2.103598   -0.529427
  H      2.581379    2.080264    0.493254
  H      2.727088    1.396124   -1.169636
  H      2.307452    3.124095   -0.921655
  O      1.273261   -0.599791   -0.365266
  C      2.270910   -1.103112    0.355224
  O      2.475513   -0.901316    1.531940
  C      3.169870   -1.963027   -0.515046
  H      3.799170   -1.301569   -1.133652
  H      3.816880   -2.583395    0.119388
  H      2.577931   -2.589183   -1.198864

 Total Charge           Charge          ....    0
 Multiplicity           Mult            ....    2
 Number of Electrons    NEL             ....  103
 Basis Dimension        Dim             ....  261

ORBITAL ENERGIES
----------------
                 SPIN UP ORBITALS
  NO   OCC          E(Eh)            E(eV)
   0   1.0000     -19.192210      -522.2466
   1   1.0000     -19.176509      -521.8193
   2   1.0000     -19.125327      -520.4266
   3   1.0000     -10.322337      -280.8851
   4   1.0000     -10.269535      -279.4483
   5   1.0000     -10.257981      -279.1338
   6   1.0000     -10.206499      -277.7330
   7   1.0000     -10.203620      -277.6546
   8   1.0000     -10.203031      -277.6386
   9   1.0000     -10.195086      -277.4224
  10   1.0000     -10.194517      -277.4069
  11   1.0000     -10.194205      -277.3984
  12   1.0000     -10.193891      -277.3899
  13   1.0000     -10.193007      -277.3658
  14   1.0000      -1.106258       -30.1028
  15   1.0000      -1.040764       -28.3206
  16   1.0000      -1.012678       -27.5564
  17   1.0000      -0.855015       -23.2661
  18   1.0000      -0.797229       -21.6937
  19   1.0000      -0.747833       -20.3496
  20   1.0000      -0.743843       -20.2410
  21   1.0000      -0.739195       -20.1145
  22   1.0000      -0.691185       -18.8081
  23   1.0000      -0.619674       -16.8622
  24   1.0000      -0.598476       -16.2854
  25   1.0000      -0.590777       -16.0759
  26   1.0000      -0.563328       -15.3289
  27   1.0000      -0.530432       -14.4338
  28   1.0000      -0.504079       -13.7167
  29   1.0000      -0.492163       -13.3924
  30   1.0000      -0.478794       -13.0286
  31   1.0000      -0.474599       -12.9145
  32   1.0000      -0.465605       -12.6698
  33   1.0000      -0.451146       -12.2763
  34   1.0000      -0.448461       -12.2033
  35   1.0000      -0.438712       -11.9380
  36   1.0000      -0.423211       -11.5162
  37   1.0000      -0.419964       -11.4278
  38   1.0000      -0.410720       -11.1763
  39   1.0000      -0.397396       -10.8137
  40   1.0000      -0.391242       -10.6462
  41   1.0000      -0.389631       -10.6024
  42   1.0000      -0.372993       -10.1496
  43   1.0000      -0.368730       -10.0337
  44   1.0000      -0.355222        -9.6661
  45   1.0000      -0.345241        -9.3945
  46   1.0000      -0.333737        -9.0814
  47   1.0000      -0.304041        -8.2734
  48   1.0000      -0.282466        -7.6863
  49   1.0000      -0.279462        -7.6045
  50   1.0000      -0.258587        -7.0365
  51   1.0000      -0.249488        -6.7889
  52   0.0000      -0.016124        -0.4388
  53   0.0000      -0.011827        -0.3218
  54   0.0000       0.002008         0.0546
  55   0.0000       0.046090         1.2542
  56   0.0000       0.066647         1.8136

                 SPIN DOWN ORBITALS
  NO   OCC          E(Eh)            E(eV)
   0   1.0000     -19.191884      -522.2377
   1   1.0000     -19.155473      -521.2469
   2   1.0000     -19.125214      -520.4235
   3   1.0000     -10.322338      -280.8851
   4   1.0000     -10.267350      -279.3888
   5   1.0000     -10.258698      -279.1534
   6   1.0000     -10.204234      -277.6713
   7   1.0000     -10.203615      -277.6545
   8   1.0000     -10.203140      -277.6415
   9   1.0000     -10.195049      -277.4214
  10   1.0000     -10.194408      -277.4039
  11   1.0000     -10.194052      -277.3943
  12   1.0000     -10.193716      -277.3851
  13   1.0000     -10.192274      -277.3459
  14   1.0000      -1.105491       -30.0819
  15   1.0000      -1.013525       -27.5794
  16   1.0000      -0.997035       -27.1307
  17   1.0000      -0.853910       -23.2361
  18   1.0000      -0.792702       -21.5705
  19   1.0000      -0.745720       -20.2921
  20   1.0000      -0.738775       -20.1031
  21   1.0000      -0.736269       -20.0349
  22   1.0000      -0.687966       -18.7205
  23   1.0000      -0.616840       -16.7851
  24   1.0000      -0.595937       -16.2163
  25   1.0000      -0.585160       -15.9230
  26   1.0000      -0.561655       -15.2834
  27   1.0000      -0.528681       -14.3861
  28   1.0000      -0.496274       -13.5043
  29   1.0000      -0.489408       -13.3175
  30   1.0000      -0.476746       -12.9729
  31   1.0000      -0.467653       -12.7255
  32   1.0000      -0.459075       -12.4921
  33   1.0000      -0.448064       -12.1924
  34   1.0000      -0.436896       -11.8885
  35   1.0000      -0.430021       -11.7015
  36   1.0000      -0.420753       -11.4493
  37   1.0000      -0.415068       -11.2946
  38   1.0000      -0.407101       -11.0778
  39   1.0000      -0.394766       -10.7421
  40   1.0000      -0.387456       -10.5432
  41   1.0000      -0.383006       -10.4221
  42   1.0000      -0.369591       -10.0571
  43   1.0000      -0.356120        -9.6905
  44   1.0000      -0.353343        -9.6149
  45   1.0000      -0.342498        -9.3198
  46   1.0000      -0.321728        -8.7547
  47   1.0000      -0.282562        -7.6889
  48   1.0000      -0.266175        -7.2430
  49   1.0000      -0.258011        -7.0208
  50   1.0000      -0.248760        -6.7691
  51   0.0000      -0.158949        -4.3252
  52   0.0000      -0.014649        -0.3986
  53   0.0000      -0.010982        -0.2988
  54   0.0000       0.002816         0.0766
  55   0.0000       0.046815         1.2739

MULLIKEN ATOMIC CHARGES AND SPIN POPULATIONS
--------------------------------------------
   0 C :    0.225552    0.094086
   1 C :    0.077150   -0.052100
   2 O :   -0.202206    0.796585
   3 H :    0.039358   -0.003844
   4 H :   -0.017471   -0.003141
   5 C :   -0.024946   -0.010180
   6 C :   -0.013147    0.042050
   7 C :    0.000734    0.021934
   8 C :    0.025709   -0.004777
   9 H :    0.007749   -0.006189
  10 C :    0.023675   -0.011249
  11 H :   -0.023299   -0.001000
  12 C :    0.026508    0.018944
  13 H :   -0.011044    0.000354
  14 H :   -0.014965    0.000794
  15 H :   -0.011919   -0.000210
  16 C :    0.036054    0.097974
  17 H :    0.030959   -0.003339
  18 H :    0.034266    0.008428
  19 H :    0.035904    0.001109
  20 O :   -0.312505    0.009086
  21 C :    0.123545   -0.000231
  22 O :   -0.224477    0.004652
  23 C :    0.048896    0.000253
  24 H :    0.042642    0.000134
  25 H :    0.040770   -0.000083
  26 H :    0.036507   -0.000040
Sum of atomic charges         :    0.0000000

LOEWDIN ATOMIC CHARGES AND SPIN POPULATIONS
-------------------------------------------
   0 C :    0.105064    0.079839
   1 C :    0.009019   -0.000046
   2 O :   -0.086081    0.764771
   3 H :    0.029754   -0.001578
   4 H :   -0.003555   -0.002188
   5 C :   -0.035141   -0.005972
   6 C :   -0.018730    0.030677
   7 C :   -0.021520    0.016161
   8 C :   -0.018810   -0.000393
   9 H :    0.030749    0.004579
  10 C :   -0.022612   -0.006798
  11 H :    0.023634   -0.000114
  12 C :   -0.022915    0.014968
  13 H :    0.029721    0.000201
  14 H :    0.028441    0.000321
  15 H :    0.028902    0.000384
  16 C :   -0.041766    0.084597
  17 H :    0.032671   -0.000997
  18 H :    0.034318    0.006358
  19 H :    0.035299    0.000786
  20 O :   -0.078731    0.009605
  21 C :    0.080549    0.000329
  22 O :   -0.177381    0.004278
  23 C :   -0.070970    0.000208
  24 H :    0.047633    0.000094
  25 H :    0.042016   -0.000045
  26 H :    0.040441   -0.000025

  Mayer bond orders larger than 0.100000
B(  0-C ,  1-C ) :   0.9233 B(  0-C ,  3-H ) :   0.8849 B(  0-C ,  5-C ) :   1.0066
B(  0-C , 20-O ) :   0.9003 B(  1-C ,  2-O ) :   1.2511 B(  1-C ,  4-H ) :   0.8998
B(  1-C , 16-C ) :   1.0135 B(  5-C ,  6-C ) :   1.3892 B(  5-C ,  7-C ) :   1.4079
B(  6-C ,  8-C ) :   1.3874 B(  6-C ,  9-H ) :   0.9528 B(  7-C , 10-C ) :   1.3645
B(  7-C , 11-H ) :   0.9811 B(  8-C , 12-C ) :   1.3690 B(  8-C , 13-H ) :   0.9827
B( 10-C , 12-C ) :   1.3926 B( 10-C , 14-H ) :   0.9816 B( 12-C , 15-H ) :   0.9850
B( 16-C , 17-H ) :   0.9514 B( 16-C , 18-H ) :   0.9497 B( 16-C , 19-H ) :   0.9600
B( 20-O , 21-C ) :   1.1127 B( 21-C , 22-O ) :   2.0771 B( 21-C , 23-C ) :   1.0343
B( 23-C , 24-H ) :   0.9463 B( 23-C , 25-H ) :   0.9591 B( 23-C , 26-H ) :   0.9512

Dispersion correction           -0.049682218
FINAL SINGLE POINT ENERGY      -651.797014195513
Dispersion correction             ... done (  0.0 sec)

DIPOLE MOMENT
-------------

Method             : SCF
Type of density    : Electron Density
Multiplicity       :   2
Irrep              :   0
Energy             :  -651.7473319773753246 Eh
Basis              : AO
                                X                 Y                 Z
Electronic contribution:     -4.420058714       0.271224747       3.519446158
Nuclear contribution   :      4.604691379      -0.727996358      -4.446633494
                        -----------------------------------------
Total Dipole Moment    :      0.184632665      -0.456771611      -0.927187336
                        -----------------------------------------
Magnitude (a.u.)       :      1.049955181
Magnitude (Debye)      :      2.668773978

Rotational constants in cm-1:             0.033724             0.016391             0.012155
Rotational constants in MHz :          1011.006214           491.380879           364.406703

                             ****ORCA TERMINATED NORMALLY****
TOTAL RUN TIME: 0 days 0 hours 1 minutes 9 seconds 413 msec
