                         Program Version 6.1.0  -  RELEASE   -
|  1> ! B3LYP def2-SVP d3 EnGrad
|  2> %pal nprocs 6 end
|  3> *xyz 0 1
|  4> C   2.36724583297008 -0.48058788502815 0.09490993724111
|  5> C   -0.86353613446344 1.80056069829118 -0.64240468328868
|  6> N   -1.10260880260229 0.69519021547623 -0.32901825626469
|  7> C   -1.37753881478983 -0.64092219804074 0.04943932767147
|  8> H   2.14702560909404 -1.50030588367926 -0.25462317109715
|  9> H   3.43642739053472 -0.27186706340613 -0.05380941901596
| 10> H   1.76897119185621 0.24614408123247 -0.47208455523652
| 11> H   2.12781222487716 -0.39769195340386 1.16535300169238
| 12> H   -2.14431392837552 -0.66278805675232 0.83935966185345
| 13> H   -1.74475207836522 -1.21257948731547 -0.81691222705239
| 14> H   -0.46138449073593 -1.11969846737391 0.42696538349702
| 15> *
| 16>
| 17>                          ****END OF INPUT****

CARTESIAN COORDINATES (ANGSTROEM)
---------------------------------
  C      2.367246   -0.480588    0.094910
  C     -0.863536    1.800561   -0.642405
  N     -1.102609    0.695190   -0.329018
  C     -1.377539   -0.640922    0.049439
  H      2.147026   -1.500306   -0.254623
  H      3.436427   -0.271867   -0.053809
  H      1.768971    0.246144   -0.472085
  H      2.127812   -0.397692    1.165353
  H     -2.144314   -0.662788    0.839360
  H     -1.744752   -1.212579   -0.816912
  H     -0.461384   -1.119698    0.426965

 Total Charge           Charge          ....    0
 Multiplicity           Mult            ....    1
 Number of Electrons    NEL             ....   32
 Basis Dimension        Dim             ....   91

ORBITAL ENERGIES
----------------

  NO   OCC          E(Eh)            E(eV)
   0   2.0000     -14.361909      -390.8074
   1   2.0000     -10.261226      -279.2222
   2   2.0000     -10.215067      -277.9661
   3   2.0000     -10.175815      -276.8980
   4   2.0000      -0.943763       -25.6811
   5   2.0000      -0.766418       -20.8553
   6   2.0000      -0.684370       -18.6227
   7   2.0000      -0.555129       -15.1058
   8   2.0000      -0.476725       -12.9723
   9   2.0000      -0.475939       -12.9510
  10   2.0000      -0.392099       -10.6696
  11   2.0000      -0.390752       -10.6329
  12   2.0000      -0.389017       -10.5857
  13   2.0000      -0.338760        -9.2181
  14   2.0000      -0.338021        -9.1980
  15   2.0000      -0.297789        -8.1033
  16   0.0000       0.024431         0.6648
  17   0.0000       0.026205         0.7131
  18   0.0000       0.045333         1.2336
  19   0.0000       0.088498         2.4081
  20   0.0000       0.124575         3.3899

MULLIKEN ATOMIC CHARGES
-----------------------
   0 C :   -0.128663
   1 C :   -0.195521
   2 N :   -0.090981
   3 C :    0.122601
   4 H :    0.023823
   5 H :    0.030880
   6 H :    0.044569
   7 H :    0.028665
   8 H :    0.055208
   9 H :    0.055338
  10 H :    0.054081
Sum of atomic charges:   -0.0000000

LOEWDIN ATOMIC CHARGES
----------------------
   0 C :   -0.113574
   1 C :   -0.143250
   2 N :   -0.014582
   3 C :    0.027579
   4 H :    0.023078
   5 H :    0.030757
   6 H :    0.030242
   7 H :    0.025904
   8 H :    0.044585
   9 H :    0.044855
  10 H :    0.044407

  Mayer bond orders larger than 0.100000
B(  0-C ,  4-H ) :   0.9939 B(  0-C ,  5-H ) :   0.9914 B(  0-C ,  6-H ) :   0.9951
B(  0-C ,  7-H ) :   0.9961 B(  1-C ,  2-N ) :   2.4362 B(  2-N ,  3-C ) :   0.9578
B(  3-C ,  8-H ) :   0.9625 B(  3-C ,  9-H ) :   0.9629 B(  3-C , 10-H ) :   0.9579

Dispersion correction           -0.009276825
FINAL SINGLE POINT ENERGY      -172.999983745388
Dispersion correction             ... done (  0.0 sec)

DIPOLE MOMENT
-------------

Method             : SCF
Type of density    : Electron Density
Multiplicity       :   1
Irrep              :   0
Energy             :  -172.9907069205169705 Eh
Basis              : AO
                                X                 Y                 Z
Electronic contribution:     -6.101271737       4.717161344      -1.514191491
Nuclear contribution   :      5.814768004      -6.099958867       1.903229673
                        -----------------------------------------
Total Dipole Moment    :     -0.286503733      -1.382797523       0.389038182
                        -----------------------------------------
Magnitude (a.u.)       :      1.464774415
Magnitude (Debye)      :      3.723160678

Rotational constants in cm-1:             0.318280             0.104306             0.081007
Rotational constants in MHz :          9541.797742          3127.001730          2428.526161

                             ****ORCA TERMINATED NORMALLY****
TOTAL RUN TIME: 0 days 0 hours 0 minutes 8 seconds 959 msec
