                         Program Version 6.1.0  -  RELEASE   -
|  1> ! B3LYP def2-SVP d3 EnGrad
|  2> %pal nprocs 6 end
|  3> *xyz 0 1
|  4> C   2.43176237518189 -0.48150137329159 -0.30142385752301
|  5> C   -1.21077219732457 -1.24884255861429 0.42249731303666
|  6> C   -1.42141214467009 -0.85257058615784 -0.85463108623019
|  7> C   -1.23791659461533 0.60302523641937 -0.94621315229967
|  8> C   -0.91784136687364 1.08887710668765 0.27594966324986
|  9> C   2.70762932192707 0.79145839624384 -0.01365533459764
| 10> H   -1.27155135280621 -2.26726683764835 0.8083658815859
| 11> H   3.6969025322069 1.10464042469324 0.33688089235735
| 12> H   1.43992822452192 -0.78709012819808 -0.64819230544724
| 13> H   -1.34652260438616 1.18450803142226 -1.86382084940078
| 14> H   -0.72209704756108 2.13069606849509 0.53358863567897
| 15> H   1.94881932561198 1.57271881413941 -0.12121211332226
| 16> H   3.18571362494291 -1.26944030044318 -0.19847078596428
| 17> H   -1.68569444973804 -1.49723344999696 -1.69516275462904
| 18> C   -0.86585740705727 -0.04764988976134 1.25908059478653
| 19> H   -1.57120996448209 0.09297108675876 2.10057754970609
| 20> H   0.13846972512185 -0.14244104074798 1.71456370901275
| 21> *
| 22>
| 23>                          ****END OF INPUT****

CARTESIAN COORDINATES (ANGSTROEM)
---------------------------------
  C      2.431762   -0.481501   -0.301424
  C     -1.210772   -1.248843    0.422497
  C     -1.421412   -0.852571   -0.854631
  C     -1.237917    0.603025   -0.946213
  C     -0.917841    1.088877    0.275950
  C      2.707629    0.791458   -0.013655
  H     -1.271551   -2.267267    0.808366
  H      3.696903    1.104640    0.336881
  H      1.439928   -0.787090   -0.648192
  H     -1.346523    1.184508   -1.863821
  H     -0.722097    2.130696    0.533589
  H      1.948819    1.572719   -0.121212
  H      3.185714   -1.269440   -0.198471
  H     -1.685694   -1.497233   -1.695163
  C     -0.865857   -0.047650    1.259081
  H     -1.571210    0.092971    2.100578
  H      0.138470   -0.142441    1.714564

 Total Charge           Charge          ....    0
 Multiplicity           Mult            ....    1
 Number of Electrons    NEL             ....   52
 Basis Dimension        Dim             ....  148

ORBITAL ENERGIES
----------------

  NO   OCC          E(Eh)            E(eV)
   0   2.0000     -10.189422      -277.2683
   1   2.0000     -10.182371      -277.0764
   2   2.0000     -10.182158      -277.0706
   3   2.0000     -10.181120      -277.0424
   4   2.0000     -10.181007      -277.0393
   5   2.0000     -10.180256      -277.0189
   6   2.0000     -10.179059      -276.9863
   7   2.0000      -0.846270       -23.0282
   8   2.0000      -0.741552       -20.1787
   9   2.0000      -0.693365       -18.8674
  10   2.0000      -0.692559       -18.8455
  11   2.0000      -0.561877       -15.2895
  12   2.0000      -0.542579       -14.7643
  13   2.0000      -0.522147       -14.2083
  14   2.0000      -0.509001       -13.8506
  15   2.0000      -0.459690       -12.5088
  16   2.0000      -0.430221       -11.7069
  17   2.0000      -0.409894       -11.1538
  18   2.0000      -0.395872       -10.7722
  19   2.0000      -0.373769       -10.1708
  20   2.0000      -0.358480        -9.7547
  21   2.0000      -0.358432        -9.7534
  22   2.0000      -0.345511        -9.4018
  23   2.0000      -0.299810        -8.1582
  24   2.0000      -0.266373        -7.2484
  25   2.0000      -0.220282        -5.9942
  26   0.0000      -0.021139        -0.5752
  27   0.0000       0.013442         0.3658
  28   0.0000       0.070332         1.9138
  29   0.0000       0.075247         2.0476
  30   0.0000       0.095921         2.6101

MULLIKEN ATOMIC CHARGES
-----------------------
   0 C :   -0.066558
   1 C :   -0.082872
   2 C :    0.009843
   3 C :    0.006506
   4 C :   -0.078322
   5 C :   -0.061240
   6 H :   -0.005958
   7 H :    0.022143
   8 H :    0.045705
   9 H :   -0.014567
  10 H :   -0.003375
  11 H :    0.027987
  12 H :    0.022450
  13 H :   -0.014361
  14 C :    0.112600
  15 H :    0.037641
  16 H :    0.042379
Sum of atomic charges:    0.0000000

LOEWDIN ATOMIC CHARGES
----------------------
   0 C :   -0.047392
   1 C :   -0.034569
   2 C :   -0.040540
   3 C :   -0.039274
   4 C :   -0.033231
   5 C :   -0.052113
   6 H :    0.020611
   7 H :    0.021042
   8 H :    0.027856
   9 H :    0.021712
  10 H :    0.019846
  11 H :    0.021206
  12 H :    0.021868
  13 H :    0.021475
  14 C :   -0.031023
  15 H :    0.050259
  16 H :    0.052268

  Mayer bond orders larger than 0.100000
B(  0-C ,  5-C ) :   2.0735 B(  0-C ,  8-H ) :   0.9531 B(  0-C , 12-H ) :   0.9614
B(  1-C ,  2-C ) :   1.7535 B(  1-C ,  6-H ) :   0.9899 B(  1-C , 14-C ) :   1.0504
B(  2-C ,  3-C ) :   1.0802 B(  2-C , 13-H ) :   0.9970 B(  3-C ,  4-C ) :   1.7570
B(  3-C ,  9-H ) :   0.9979 B(  4-C , 10-H ) :   0.9852 B(  4-C , 14-C ) :   1.0576
B(  5-C ,  7-H ) :   0.9600 B(  5-C , 11-H ) :   0.9541 B( 14-C , 15-H ) :   0.9034
B( 14-C , 16-H ) :   0.8920

Dispersion correction           -0.023929273
FINAL SINGLE POINT ENERGY      -272.329631419316
Dispersion correction             ... done (  0.0 sec)

DIPOLE MOMENT
-------------

Method             : SCF
Type of density    : Electron Density
Multiplicity       :   1
Irrep              :   0
Energy             :  -272.3057021464151717 Eh
Basis              : AO
                                X                 Y                 Z
Electronic contribution:     -3.846236697      -0.287386536      -0.806984244
Nuclear contribution   :      3.809727425       0.278425831       0.999756617
                        -----------------------------------------
Total Dipole Moment    :     -0.036509271      -0.008960705       0.192772373
                        -----------------------------------------
Magnitude (a.u.)       :      0.196403689
Magnitude (Debye)      :      0.499218504

Rotational constants in cm-1:             0.129640             0.049652             0.047673
Rotational constants in MHz :          3886.517715          1488.536655          1429.211051

                             ****ORCA TERMINATED NORMALLY****
TOTAL RUN TIME: 0 days 0 hours 0 minutes 21 seconds 108 msec
