                         Program Version 6.1.0  -  RELEASE   -
|  1> ! B3LYP def2-SVP d3 EnGrad
|  2> %pal nprocs 6 end
|  3> *xyz 0 1
|  4> C   0.765101686317 0.38992754903893 -0.14897370246027
|  5> O   -0.54292334968083 0.65685634392411 0.25858145047369
|  6> C   -1.49247266212055 -0.27976946693011 -0.20344451249438
|  7> O   1.3005138463969 -0.77525493400034 0.41086721018227
|  8> H   1.34528079479887 1.28997876662516 0.12737771107328
|  9> H   0.81977853006174 0.24315162094627 -1.24568253675555
| 10> H   -2.47347406606028 0.01757713160299 0.19384903783135
| 11> H   -1.54448207751581 -0.28973991779624 -1.31086072206157
| 12> H   1.32837971513073 -0.65182380114026 1.37065013856298
| 13> H   -1.25804041732777 -1.30295029227051 0.1387149256482
| 14> *
| 15>
| 16>                          ****END OF INPUT****

CARTESIAN COORDINATES (ANGSTROEM)
---------------------------------
  C      0.765102    0.389928   -0.148974
  O     -0.542923    0.656856    0.258581
  C     -1.492473   -0.279769   -0.203445
  O      1.300514   -0.775255    0.410867
  H      1.345281    1.289979    0.127378
  H      0.819779    0.243152   -1.245683
  H     -2.473474    0.017577    0.193849
  H     -1.544482   -0.289740   -1.310861
  H      1.328380   -0.651824    1.370650
  H     -1.258040   -1.302950    0.138715

 Total Charge           Charge          ....    0
 Multiplicity           Mult            ....    1
 Number of Electrons    NEL             ....   34
 Basis Dimension        Dim             ....   86

ORBITAL ENERGIES
----------------

  NO   OCC          E(Eh)            E(eV)
   0   2.0000     -19.133370      -520.6455
   1   2.0000     -19.132769      -520.6291
   2   2.0000     -10.274287      -279.5776
   3   2.0000     -10.226533      -278.2781
   4   2.0000      -1.052288       -28.6342
   5   2.0000      -0.986327       -26.8393
   6   2.0000      -0.708046       -19.2669
   7   2.0000      -0.626826       -17.0568
   8   2.0000      -0.527472       -14.3532
   9   2.0000      -0.489390       -13.3170
  10   2.0000      -0.476631       -12.9698
  11   2.0000      -0.420157       -11.4331
  12   2.0000      -0.405564       -11.0359
  13   2.0000      -0.370902       -10.0928
  14   2.0000      -0.306611        -8.3433
  15   2.0000      -0.293174        -7.9777
  16   2.0000      -0.269244        -7.3265
  17   0.0000       0.058694         1.5971
  18   0.0000       0.081547         2.2190
  19   0.0000       0.106032         2.8853
  20   0.0000       0.121223         3.2986
  21   0.0000       0.140266         3.8168

MULLIKEN ATOMIC CHARGES
-----------------------
   0 C :    0.338902
   1 O :   -0.384965
   2 C :    0.181829
   3 O :   -0.309896
   4 H :    0.000485
   5 H :   -0.015019
   6 H :    0.023176
   7 H :   -0.004166
   8 H :    0.162160
   9 H :    0.007494
Sum of atomic charges:   -0.0000000

LOEWDIN ATOMIC CHARGES
----------------------
   0 C :    0.139533
   1 O :   -0.178603
   2 C :    0.066689
   3 O :   -0.134305
   4 H :    0.000873
   5 H :   -0.001334
   6 H :    0.020274
   7 H :    0.005296
   8 H :    0.076181
   9 H :    0.005397

  Mayer bond orders larger than 0.100000
B(  0-C ,  1-O ) :   1.0483 B(  0-C ,  3-O ) :   1.0792 B(  0-C ,  4-H ) :   0.9545
B(  0-C ,  5-H ) :   0.9407 B(  1-O ,  2-C ) :   0.9845 B(  2-C ,  6-H ) :   0.9812
B(  2-C ,  7-H ) :   0.9629 B(  2-C ,  9-H ) :   0.9655 B(  3-O ,  8-H ) :   0.9771

Dispersion correction           -0.008546049
FINAL SINGLE POINT ENERGY      -229.960578824070
Dispersion correction             ... done (  0.0 sec)

DIPOLE MOMENT
-------------

Method             : SCF
Type of density    : Electron Density
Multiplicity       :   1
Irrep              :   0
Energy             :  -229.9520327752146329 Eh
Basis              : AO
                                X                 Y                 Z
Electronic contribution:      1.720464215       0.554890615       1.319078137
Nuclear contribution   :     -1.805871618      -0.536833871      -1.195009954
                        -----------------------------------------
Total Dipole Moment    :     -0.085407403       0.018056744       0.124068183
                        -----------------------------------------
Magnitude (a.u.)       :      0.151701630
Magnitude (Debye)      :      0.385594900

Rotational constants in cm-1:             0.579892             0.185532             0.160585
Rotational constants in MHz :         17384.716515          5562.111612          4814.220237

                             ****ORCA TERMINATED NORMALLY****
TOTAL RUN TIME: 0 days 0 hours 0 minutes 9 seconds 727 msec
