                         Program Version 6.1.0  -  RELEASE   -
|  1> ! B3LYP def2-SVP d3 EnGrad
|  2> %pal nprocs 6 end
|  3> *xyz 0 1
|  4> C   -0.25713800211254 0.65854405733791 -5.6001e-08
|  5> H   -0.32719023081564 1.23702783225803 0.9244112555217
|  6> H   -0.32719198120942 1.23702890320577 -0.9244105604108
|  7> C   -0.37558863944055 -0.74388710314788 -1.1843001e-07
|  8> H   -0.64979265161836 -1.24928482165217 -0.9309573307877
|  9> H   -0.64979006048513 -1.24928440341863 0.93095811205164
| 10> F   1.63382861651795 0.59073266477906 -2.6111202e-07
| 11> H   0.95286294916369 -0.48087712936209 -1.04083181e-06
| 12> *
| 13>
| 14>                          ****END OF INPUT****

CARTESIAN COORDINATES (ANGSTROEM)
---------------------------------
  C     -0.257138    0.658544   -0.000000
  H     -0.327190    1.237028    0.924411
  H     -0.327192    1.237029   -0.924411
  C     -0.375589   -0.743887   -0.000000
  H     -0.649793   -1.249285   -0.930957
  H     -0.649790   -1.249284    0.930958
  F      1.633829    0.590733   -0.000000
  H      0.952863   -0.480877   -0.000001

 Total Charge           Charge          ....    0
 Multiplicity           Mult            ....    1
 Number of Electrons    NEL             ....   26
 Basis Dimension        Dim             ....   67

ORBITAL ENERGIES
----------------

  NO   OCC          E(Eh)            E(eV)
   0   2.0000     -24.598528      -669.3600
   1   2.0000     -10.273333      -279.5516
   2   2.0000     -10.184485      -277.1339
   3   2.0000      -1.063427       -28.9373
   4   2.0000      -0.785314       -21.3695
   5   2.0000      -0.608939       -16.5701
   6   2.0000      -0.493546       -13.4301
   7   2.0000      -0.482569       -13.1314
   8   2.0000      -0.412724       -11.2308
   9   2.0000      -0.383016       -10.4224
  10   2.0000      -0.360043        -9.7973
  11   2.0000      -0.326472        -8.8837
  12   2.0000      -0.257444        -7.0054
  13   0.0000      -0.037895        -1.0312
  14   0.0000       0.064366         1.7515
  15   0.0000       0.087151         2.3715
  16   0.0000       0.103510         2.8166
  17   0.0000       0.155530         4.2322

MULLIKEN ATOMIC CHARGES
-----------------------
   0 C :    0.156368
   1 H :    0.063933
   2 H :    0.063933
   3 C :   -0.215286
   4 H :    0.045539
   5 H :    0.045539
   6 F :   -0.398797
   7 H :    0.238772
Sum of atomic charges:    0.0000000

LOEWDIN ATOMIC CHARGES
----------------------
   0 C :    0.198604
   1 H :    0.041732
   2 H :    0.041732
   3 C :   -0.157664
   4 H :    0.031871
   5 H :    0.031871
   6 F :   -0.300474
   7 H :    0.112329

  Mayer bond orders larger than 0.100000
B(  0-C ,  1-H ) :   0.9535 B(  0-C ,  2-H ) :   0.9535 B(  0-C ,  3-C ) :   1.4152
B(  0-C ,  6-F ) :   0.4571 B(  3-C ,  4-H ) :   0.9616 B(  3-C ,  5-H ) :   0.9616
B(  3-C ,  7-H ) :   0.5185 B(  6-F ,  7-H ) :   0.4239

Dispersion correction           -0.005976823
FINAL SINGLE POINT ENERGY      -178.733231131032
Dispersion correction             ... done (  0.1 sec)

DIPOLE MOMENT
-------------

Method             : SCF
Type of density    : Electron Density
Multiplicity       :   1
Irrep              :   0
Energy             :  -178.7272543084472716 Eh
Basis              : AO
                                X                 Y                 Z
Electronic contribution:      3.225039895       1.761907594      -0.000001091
Nuclear contribution   :     -4.209913889      -1.780320495       0.000001169
                        -----------------------------------------
Total Dipole Moment    :     -0.984873993      -0.018412901       0.000000078
                        -----------------------------------------
Magnitude (a.u.)       :      0.985046099
Magnitude (Debye)      :      2.503788205

Rotational constants in cm-1:             0.915955             0.299707             0.248962
Rotational constants in MHz :         27459.639328          8984.984714          7463.705281

                             ****ORCA TERMINATED NORMALLY****
TOTAL RUN TIME: 0 days 0 hours 0 minutes 7 seconds 562 msec
