                         Program Version 6.1.0  -  RELEASE   -
|  1> ! B3LYP def2-SVP d3 EnGrad
|  2> %pal nprocs 6 end
|  3> *xyz 0 1
|  4> C   -0.09069811082582 -0.93304231276448 0.11011672489308
|  5> O   -1.28532576040033 -0.43482035127552 -0.41982207688599
|  6> C   1.1414404949638 1.07472471869136 0.18406160827967
|  7> O   1.05430047116647 -0.24204044363031 -0.29630786270483
|  8> H   -0.13598427948658 -0.95826149797141 1.22345141961349
|  9> H   0.02947224756367 -1.95733777592191 -0.27175664848431
| 10> H   1.05856548902215 1.11497728758676 1.29129789038649
| 11> H   2.12379739542611 1.47481036848596 -0.10529320206375
| 12> H   -1.59390475906751 0.29795778956619 0.12782023447765
| 13> H   0.36190481163805 1.73162321723338 -0.2477420875115
| 14> *
| 15>
| 16>                          ****END OF INPUT****

CARTESIAN COORDINATES (ANGSTROEM)
---------------------------------
  C     -0.090698   -0.933042    0.110117
  O     -1.285326   -0.434820   -0.419822
  C      1.141440    1.074725    0.184062
  O      1.054300   -0.242040   -0.296308
  H     -0.135984   -0.958261    1.223451
  H      0.029472   -1.957338   -0.271757
  H      1.058565    1.114977    1.291298
  H      2.123797    1.474810   -0.105293
  H     -1.593905    0.297958    0.127820
  H      0.361905    1.731623   -0.247742

 Total Charge           Charge          ....    0
 Multiplicity           Mult            ....    1
 Number of Electrons    NEL             ....   34
 Basis Dimension        Dim             ....   86

ORBITAL ENERGIES
----------------

  NO   OCC          E(Eh)            E(eV)
   0   2.0000     -19.135389      -520.7004
   1   2.0000     -19.131755      -520.6015
   2   2.0000     -10.275993      -279.6240
   3   2.0000     -10.233288      -278.4619
   4   2.0000      -1.052499       -28.6400
   5   2.0000      -0.989818       -26.9343
   6   2.0000      -0.714403       -19.4399
   7   2.0000      -0.623195       -16.9580
   8   2.0000      -0.532803       -14.4983
   9   2.0000      -0.496671       -13.5151
  10   2.0000      -0.481484       -13.1018
  11   2.0000      -0.436568       -11.8796
  12   2.0000      -0.401754       -10.9323
  13   2.0000      -0.345729        -9.4078
  14   2.0000      -0.329787        -8.9740
  15   2.0000      -0.290401        -7.9022
  16   2.0000      -0.268264        -7.2998
  17   0.0000       0.040210         1.0942
  18   0.0000       0.092730         2.5233
  19   0.0000       0.101823         2.7707
  20   0.0000       0.113454         3.0872
  21   0.0000       0.136640         3.7182

MULLIKEN ATOMIC CHARGES
-----------------------
   0 C :    0.323195
   1 O :   -0.300346
   2 C :    0.173305
   3 O :   -0.367470
   4 H :   -0.024685
   5 H :    0.014940
   6 H :   -0.011350
   7 H :    0.029543
   8 H :    0.164976
   9 H :   -0.002109
Sum of atomic charges:   -0.0000000

LOEWDIN ATOMIC CHARGES
----------------------
   0 C :    0.140298
   1 O :   -0.128370
   2 C :    0.060137
   3 O :   -0.170342
   4 H :   -0.016115
   5 H :    0.015424
   6 H :    0.000657
   7 H :    0.024214
   8 H :    0.074105
   9 H :   -0.000008

  Mayer bond orders larger than 0.100000
B(  0-C ,  1-O ) :   1.0891 B(  0-C ,  3-O ) :   1.0459 B(  0-C ,  4-H ) :   0.9455
B(  0-C ,  5-H ) :   0.9587 B(  1-O ,  8-H ) :   0.9797 B(  2-C ,  3-O ) :   0.9998
B(  2-C ,  6-H ) :   0.9549 B(  2-C ,  7-H ) :   0.9814 B(  2-C ,  9-H ) :   0.9627

Dispersion correction           -0.008652677
FINAL SINGLE POINT ENERGY      -229.956800881423
Dispersion correction             ... done (  0.1 sec)

DIPOLE MOMENT
-------------

Method             : SCF
Type of density    : Electron Density
Multiplicity       :   1
Irrep              :   0
Energy             :  -229.9481482044275538 Eh
Basis              : AO
                                X                 Y                 Z
Electronic contribution:     -0.866614986      -1.746405638      -1.651149423
Nuclear contribution   :      0.743382007       2.263978775       2.419428000
                        -----------------------------------------
Total Dipole Moment    :     -0.123232979       0.517573138       0.768278577
                        -----------------------------------------
Magnitude (a.u.)       :      0.934516073
Magnitude (Debye)      :      2.375351086

Rotational constants in cm-1:             0.576938             0.187168             0.158560
Rotational constants in MHz :         17296.163560          5611.140539          4753.495704

                             ****ORCA TERMINATED NORMALLY****
TOTAL RUN TIME: 0 days 0 hours 0 minutes 9 seconds 732 msec
