                         Program Version 6.1.0  -  RELEASE   -
|  1> ! B3LYP def2-SVP d3 EnGrad
|  2> %pal nprocs 6 end
|  3> *xyz 0 1
|  4> C   -0.71006571292191 -1.68079575099325 -0.29371218408898
|  5> C   -1.54685670595383 -0.56428445316426 -0.4642644367584
|  6> C   -1.23806509601018 0.62865647921295 0.15552642757396
|  7> C   -1.51620511724318 1.61973812765285 0.98518560908341
|  8> C   2.36318719485309 0.20193308325421 0.28578053759958
|  9> C   1.34967012722065 0.12986161318729 -0.61046054265189
| 10> H   -2.17559857226038 -0.51450539342305 -1.36483420281027
| 11> H   -0.3086478258303 -1.89575523255868 0.70453577587079
| 12> H   -0.84405277626325 -2.55537578177989 -0.93813130889409
| 13> H   3.3807064202173 0.48902743296452 0.0012834412818
| 14> H   2.19944066775927 -0.03078701939869 1.34438628388623
| 15> H   0.54530089148346 -0.90436600403581 -0.58770359524129
| 16> H   1.56106005995504 0.38706877716077 -1.6592648263799
| 17> H   -0.85099929983933 2.48506293185893 1.08501009747056
| 18> H   -2.41133477874388 1.60656901116008 1.61988371594936
| 19> H   0.20246052357741 0.59795217890201 -0.26322079189088
| 20> *
| 21>
| 22>                          ****END OF INPUT****

CARTESIAN COORDINATES (ANGSTROEM)
---------------------------------
  C     -0.710066   -1.680796   -0.293712
  C     -1.546857   -0.564284   -0.464264
  C     -1.238065    0.628656    0.155526
  C     -1.516205    1.619738    0.985186
  C      2.363187    0.201933    0.285781
  C      1.349670    0.129862   -0.610461
  H     -2.175599   -0.514505   -1.364834
  H     -0.308648   -1.895755    0.704536
  H     -0.844053   -2.555376   -0.938131
  H      3.380706    0.489027    0.001283
  H      2.199441   -0.030787    1.344386
  H      0.545301   -0.904366   -0.587704
  H      1.561060    0.387069   -1.659265
  H     -0.850999    2.485063    1.085010
  H     -2.411335    1.606569    1.619884
  H      0.202461    0.597952   -0.263221

 Total Charge           Charge          ....    0
 Multiplicity           Mult            ....    1
 Number of Electrons    NEL             ....   46
 Basis Dimension        Dim             ....  134

ORBITAL ENERGIES
----------------

  NO   OCC          E(Eh)            E(eV)
   0   2.0000     -10.199527      -277.5432
   1   2.0000     -10.193307      -277.3740
   2   2.0000     -10.189092      -277.2593
   3   2.0000     -10.188572      -277.2451
   4   2.0000     -10.188371      -277.2397
   5   2.0000     -10.186452      -277.1874
   6   2.0000      -0.805818       -21.9274
   7   2.0000      -0.747103       -20.3297
   8   2.0000      -0.723912       -19.6986
   9   2.0000      -0.619492       -16.8572
  10   2.0000      -0.583709       -15.8835
  11   2.0000      -0.516812       -14.0632
  12   2.0000      -0.471478       -12.8296
  13   2.0000      -0.460278       -12.5248
  14   2.0000      -0.439584       -11.9617
  15   2.0000      -0.423216       -11.5163
  16   2.0000      -0.413445       -11.2504
  17   2.0000      -0.385287       -10.4842
  18   2.0000      -0.366596        -9.9756
  19   2.0000      -0.348353        -9.4792
  20   2.0000      -0.277190        -7.5427
  21   2.0000      -0.246347        -6.7034
  22   2.0000      -0.214490        -5.8366
  23   0.0000      -0.031649        -0.8612
  24   0.0000      -0.013285        -0.3615
  25   0.0000       0.021767         0.5923
  26   0.0000       0.079776         2.1708
  27   0.0000       0.097974         2.6660

MULLIKEN ATOMIC CHARGES
-----------------------
   0 C :   -0.026455
   1 C :   -0.045843
   2 C :   -0.069553
   3 C :   -0.074675
   4 C :   -0.060528
   5 C :   -0.035311
   6 H :    0.033071
   7 H :    0.031553
   8 H :    0.028171
   9 H :    0.030044
  10 H :    0.025791
  11 H :    0.027737
  12 H :    0.023099
  13 H :    0.027973
  14 H :    0.033615
  15 H :    0.051312
Sum of atomic charges:   -0.0000000

LOEWDIN ATOMIC CHARGES
----------------------
   0 C :   -0.079912
   1 C :   -0.046473
   2 C :   -0.050527
   3 C :   -0.075678
   4 C :   -0.056733
   5 C :   -0.063835
   6 H :    0.040291
   7 H :    0.030428
   8 H :    0.024970
   9 H :    0.022426
  10 H :    0.020061
  11 H :    0.075117
  12 H :    0.026931
  13 H :    0.029511
  14 H :    0.031490
  15 H :    0.071933

  Mayer bond orders larger than 0.100000
B(  0-C ,  1-C ) :   1.4509 B(  0-C ,  4-C ) :   0.1169 B(  0-C ,  7-H ) :   0.9378
B(  0-C ,  8-H ) :   0.9483 B(  0-C , 11-H ) :   0.4215 B(  1-C ,  2-C ) :   1.4047
B(  1-C ,  6-H ) :   0.9461 B(  2-C ,  3-C ) :   2.0141 B(  2-C ,  4-C ) :   0.1078
B(  2-C , 15-H ) :   0.3683 B(  3-C , 13-H ) :   0.9198 B(  3-C , 14-H ) :   0.9502
B(  4-C ,  5-C ) :   1.7888 B(  4-C ,  9-H ) :   0.9625 B(  4-C , 10-H ) :   0.9576
B(  5-C , 11-H ) :   0.5609 B(  5-C , 12-H ) :   0.9301 B(  5-C , 15-H ) :   0.5965

Dispersion correction           -0.021364129
FINAL SINGLE POINT ENERGY      -234.157087633859
Dispersion correction             ... done (  0.0 sec)

DIPOLE MOMENT
-------------

Method             : SCF
Type of density    : Electron Density
Multiplicity       :   1
Irrep              :   0
Energy             :  -234.1357235046776566 Eh
Basis              : AO
                                X                 Y                 Z
Electronic contribution:     -2.782960135       0.662154753       0.043328835
Nuclear contribution   :      2.849601356      -0.735501327      -0.127420687
                        -----------------------------------------
Total Dipole Moment    :      0.066641222      -0.073346574      -0.084091852
                        -----------------------------------------
Magnitude (a.u.)       :      0.129970042
Magnitude (Debye)      :      0.330357594

Rotational constants in cm-1:             0.132797             0.077831             0.054223
Rotational constants in MHz :          3981.165819          2333.305184          1625.561364

                             ****ORCA TERMINATED NORMALLY****
TOTAL RUN TIME: 0 days 0 hours 0 minutes 18 seconds 528 msec
