                         Program Version 6.1.0  -  RELEASE   -
|  1> ! B3LYP def2-SVP d3 EnGrad
|  2> %pal nprocs 6 end
|  3> *xyz 0 1
|  4> C   -0.90853118113881 -1.53322709512357 0.34064497907012
|  5> C   -1.47201039397534 -0.65303684572618 -0.50165367625255
|  6> C   -1.72181284883758 0.76937688707353 -0.22652536497361
|  7> C   -1.02139102986697 1.54272259272105 0.61759142833093
|  8> C   2.62936934040652 -0.48963687813045 0.28612607869467
|  9> C   2.20315912160738 0.39787818067303 -0.61301337141298
| 10> H   -1.80104940381621 -1.01066600577425 -1.48529907638106
| 11> H   -0.60829007471652 -1.24710637014229 1.35295089679119
| 12> H   -0.74288813946809 -2.57302550792744 0.04697041105363
| 13> H   3.6119190732372 -0.40668716013982 0.76215054608312
| 14> H   2.00678166897602 -1.33963121924209 0.58318900007283
| 15> H   1.21653288663013 0.30887132198079 -1.07628936700051
| 16> H   2.81903399174055 1.25114205917203 -0.91581761606533
| 17> H   -1.28577067837423 2.59190591707696 0.77400053406335
| 18> H   -0.15090106633416 1.16147006032948 1.15920700239574
| 19> H   -2.54714526606992 1.22248006317917 -0.78980540446951
| 20> *
| 21>
| 22>                          ****END OF INPUT****

CARTESIAN COORDINATES (ANGSTROEM)
---------------------------------
  C     -0.908531   -1.533227    0.340645
  C     -1.472010   -0.653037   -0.501654
  C     -1.721813    0.769377   -0.226525
  C     -1.021391    1.542723    0.617591
  C      2.629369   -0.489637    0.286126
  C      2.203159    0.397878   -0.613013
  H     -1.801049   -1.010666   -1.485299
  H     -0.608290   -1.247106    1.352951
  H     -0.742888   -2.573026    0.046970
  H      3.611919   -0.406687    0.762151
  H      2.006782   -1.339631    0.583189
  H      1.216533    0.308871   -1.076289
  H      2.819034    1.251142   -0.915818
  H     -1.285771    2.591906    0.774001
  H     -0.150901    1.161470    1.159207
  H     -2.547145    1.222480   -0.789805

 Total Charge           Charge          ....    0
 Multiplicity           Mult            ....    1
 Number of Electrons    NEL             ....   46
 Basis Dimension        Dim             ....  134

ORBITAL ENERGIES
----------------

  NO   OCC          E(Eh)            E(eV)
   0   2.0000     -10.194002      -277.3929
   1   2.0000     -10.192130      -277.3420
   2   2.0000     -10.186816      -277.1973
   3   2.0000     -10.184687      -277.1394
   4   2.0000     -10.181876      -277.0629
   5   2.0000     -10.180678      -277.0303
   6   2.0000      -0.794423       -21.6173
   7   2.0000      -0.743262       -20.2252
   8   2.0000      -0.718231       -19.5441
   9   2.0000      -0.610794       -16.6206
  10   2.0000      -0.563633       -15.3372
  11   2.0000      -0.521345       -14.1865
  12   2.0000      -0.487519       -13.2661
  13   2.0000      -0.459468       -12.5028
  14   2.0000      -0.436643       -11.8817
  15   2.0000      -0.421264       -11.4632
  16   2.0000      -0.412130       -11.2146
  17   2.0000      -0.365745        -9.9524
  18   2.0000      -0.348317        -9.4782
  19   2.0000      -0.347302        -9.4506
  20   2.0000      -0.313735        -8.5372
  21   2.0000      -0.267753        -7.2859
  22   2.0000      -0.237400        -6.4600
  23   0.0000      -0.035341        -0.9617
  24   0.0000       0.012462         0.3391
  25   0.0000       0.063275         1.7218
  26   0.0000       0.074147         2.0176
  27   0.0000       0.087140         2.3712

MULLIKEN ATOMIC CHARGES
-----------------------
   0 C :   -0.019313
   1 C :   -0.026160
   2 C :   -0.024112
   3 C :   -0.026062
   4 C :   -0.065878
   5 C :   -0.055080
   6 H :    0.001051
   7 H :    0.025057
   8 H :    0.024476
   9 H :    0.024115
  10 H :    0.025005
  11 H :    0.041802
  12 H :    0.023668
  13 H :    0.023396
  14 H :    0.028528
  15 H :   -0.000493
Sum of atomic charges:    0.0000000

LOEWDIN ATOMIC CHARGES
----------------------
   0 C :   -0.039558
   1 C :   -0.035275
   2 C :   -0.038035
   3 C :   -0.036573
   4 C :   -0.053818
   5 C :   -0.043001
   6 H :    0.028066
   7 H :    0.023123
   8 H :    0.025491
   9 H :    0.022056
  10 H :    0.021305
  11 H :    0.026902
  12 H :    0.022669
  13 H :    0.025245
  14 H :    0.023942
  15 H :    0.027461

  Mayer bond orders larger than 0.100000
B(  0-C ,  1-C ) :   1.9559 B(  0-C ,  7-H ) :   0.9463 B(  0-C ,  8-H ) :   0.9470
B(  1-C ,  2-C ) :   1.0801 B(  1-C ,  6-H ) :   0.9547 B(  2-C ,  3-C ) :   1.9552
B(  2-C , 15-H ) :   0.9560 B(  3-C , 13-H ) :   0.9490 B(  3-C , 14-H ) :   0.9480
B(  4-C ,  5-C ) :   2.0738 B(  4-C ,  9-H ) :   0.9606 B(  4-C , 10-H ) :   0.9554
B(  5-C , 11-H ) :   0.9546 B(  5-C , 12-H ) :   0.9613

Dispersion correction           -0.019608324
FINAL SINGLE POINT ENERGY      -234.259346178831
Dispersion correction             ... done (  0.0 sec)

DIPOLE MOMENT
-------------

Method             : SCF
Type of density    : Electron Density
Multiplicity       :   1
Irrep              :   0
Energy             :  -234.2397378546532707 Eh
Basis              : AO
                                X                 Y                 Z
Electronic contribution:     -2.539097437       0.098863416      -0.505147625
Nuclear contribution   :      2.472113370      -0.080693545       0.471313949
                        -----------------------------------------
Total Dipole Moment    :     -0.066984067       0.018169870      -0.033833676
                        -----------------------------------------
Magnitude (a.u.)       :      0.077212221
Magnitude (Debye)      :      0.196257868

Rotational constants in cm-1:             0.140561             0.058060             0.046697
Rotational constants in MHz :          4213.914558          1740.590543          1399.929068

                             ****ORCA TERMINATED NORMALLY****
TOTAL RUN TIME: 0 days 0 hours 0 minutes 16 seconds 335 msec
