                         Program Version 6.1.0  -  RELEASE   -
|  1> ! B3LYP def2-SVP d3 EnGrad
|  2> %pal nprocs 6 end
|  3> *xyz 0 1
|  4> H   2.66585205942286 -0.64694375132263 0.7944254100061
|  5> C   2.31995281864348 0.14082545698021 0.12080900798986
|  6> C   1.03976700910401 0.2188560342456 -0.24792177431713
|  7> H   3.03888767487942 0.86996178545557 -0.25449562505657
|  8> H   0.66737193987427 1.01120333982217 -0.90933575800485
|  9> O   0.10164919476314 -0.67272500003285 0.17762433754841
| 10> H   -1.83008554089979 0.58936057031875 1.24130946186959
| 11> O   -1.78659688089083 0.70086942465091 0.28048541537244
| 12> C   -1.21842921923931 -0.44480339474963 -0.26311931956472
| 13> H   -1.24452196305718 -0.31012042376274 -1.35920152249188
| 14> H   -1.76299809260006 -1.36699104160536 0.00717236664874
| 15> *
| 16>
| 17>                          ****END OF INPUT****

CARTESIAN COORDINATES (ANGSTROEM)
---------------------------------
  H      2.665852   -0.646944    0.794425
  C      2.319953    0.140825    0.120809
  C      1.039767    0.218856   -0.247922
  H      3.038888    0.869962   -0.254496
  H      0.667372    1.011203   -0.909336
  O      0.101649   -0.672725    0.177624
  H     -1.830086    0.589361    1.241309
  O     -1.786597    0.700869    0.280485
  C     -1.218429   -0.444803   -0.263119
  H     -1.244522   -0.310120   -1.359202
  H     -1.762998   -1.366991    0.007172

 Total Charge           Charge          ....    0
 Multiplicity           Mult            ....    1
 Number of Electrons    NEL             ....   40
 Basis Dimension        Dim             ....  100

ORBITAL ENERGIES
----------------

  NO   OCC          E(Eh)            E(eV)
   0   2.0000     -19.158826      -521.3381
   1   2.0000     -19.145957      -520.9880
   2   2.0000     -10.289934      -280.0033
   3   2.0000     -10.235977      -278.5351
   4   2.0000     -10.167201      -276.6636
   5   2.0000      -1.074852       -29.2482
   6   2.0000      -1.007660       -27.4198
   7   2.0000      -0.754090       -20.5198
   8   2.0000      -0.670224       -18.2377
   9   2.0000      -0.590419       -16.0661
  10   2.0000      -0.533253       -14.5105
  11   2.0000      -0.504829       -13.7371
  12   2.0000      -0.478761       -13.0278
  13   2.0000      -0.427507       -11.6331
  14   2.0000      -0.409129       -11.1330
  15   2.0000      -0.373067       -10.1517
  16   2.0000      -0.367272        -9.9940
  17   2.0000      -0.323768        -8.8102
  18   2.0000      -0.303309        -8.2535
  19   2.0000      -0.229647        -6.2490
  20   0.0000       0.027174         0.7395
  21   0.0000       0.055668         1.5148
  22   0.0000       0.085959         2.3391
  23   0.0000       0.099923         2.7190
  24   0.0000       0.114165         3.1066

MULLIKEN ATOMIC CHARGES
-----------------------
   0 H :    0.021503
   1 C :   -0.067393
   2 C :    0.112440
   3 H :    0.020671
   4 H :    0.006239
   5 O :   -0.316534
   6 H :    0.168452
   7 O :   -0.299333
   8 C :    0.342727
   9 H :    0.001408
  10 H :    0.009820
Sum of atomic charges:   -0.0000000

LOEWDIN ATOMIC CHARGES
----------------------
   0 H :    0.026902
   1 C :   -0.119619
   2 C :    0.050463
   3 H :    0.029210
   4 H :    0.015233
   5 O :   -0.120513
   6 H :    0.081346
   7 O :   -0.123023
   8 C :    0.148078
   9 H :    0.006602
  10 H :    0.005321

  Mayer bond orders larger than 0.100000
B(  0-H ,  1-C ) :   0.9519 B(  1-C ,  2-C ) :   1.9479 B(  1-C ,  3-H ) :   0.9451
B(  2-C ,  4-H ) :   0.9516 B(  2-C ,  5-O ) :   1.0739 B(  5-O ,  8-C ) :   0.9940
B(  6-H ,  7-O ) :   0.9746 B(  7-O ,  8-C ) :   1.0983 B(  8-C ,  9-H ) :   0.9442
B(  8-C , 10-H ) :   0.9563

Dispersion correction           -0.010877793
FINAL SINGLE POINT ENERGY      -268.000796170559
Dispersion correction             ... done (  0.0 sec)

DIPOLE MOMENT
-------------

Method             : SCF
Type of density    : Electron Density
Multiplicity       :   1
Irrep              :   0
Energy             :  -267.9899183772243418 Eh
Basis              : AO
                                X                 Y                 Z
Electronic contribution:     -1.733804056      -0.265672495       0.705940412
Nuclear contribution   :      1.391164772       0.170255500      -0.608528946
                        -----------------------------------------
Total Dipole Moment    :     -0.342639284      -0.095416995       0.097411466
                        -----------------------------------------
Magnitude (a.u.)       :      0.368775101
Magnitude (Debye)      :      0.937351815

Rotational constants in cm-1:             0.543619             0.093626             0.086553
Rotational constants in MHz :         16297.300832          2806.837228          2594.806426

                             ****ORCA TERMINATED NORMALLY****
TOTAL RUN TIME: 0 days 0 hours 0 minutes 11 seconds 429 msec
