                         Program Version 6.1.0  -  RELEASE   -
|  1> ! B3LYP def2-SVP d3 EnGrad
|  2> %pal nprocs 6 end
|  3> *xyz 0 2
|  4> C   0.24995488341428 0.72214680992659 0.50597597648285
|  5> C   0.56667742285533 2.07229916214564 -0.0111312784895
|  6> O   -0.15382171282284 2.63489114700664 0.99678996771665
|  7> H   0.79048034015171 0.43757171096673 1.40827485721491
|  8> H   0.15163133947328 2.21523576305705 -1.04853859634962
|  9> C   -1.11436590124727 0.15917729905633 0.35505659717777
| 10> C   -2.17621671739213 0.9208184577652 -0.16636877013547
| 11> C   -1.36174073141656 -1.17661924872835 0.72088984441731
| 12> C   -3.43717416150446 0.35080268406149 -0.34774499102162
| 13> H   -2.00008604767922 1.98090260253219 -0.35030379239967
| 14> C   -2.62649428971874 -1.74183009578588 0.54219464038118
| 15> H   -0.53593495374238 -1.7587031548167 1.13704970575124
| 16> C   -3.67068083383916 -0.98567594138353 -0.00087981617696
| 17> H   -4.25260871145137 0.96073176594405 -0.74988473087145
| 18> H   -2.79736908640227 -2.78398522171075 0.83027930222612
| 19> H   -4.66178292331076 -1.42888115164694 -0.1410582524217
| 20> C   2.05665100988165 2.42334872184371 -0.05738787823196
| 21> H   2.51754594955477 2.21258245508827 0.9227088683246
| 22> H   2.58437369605555 1.84704154214222 -0.83550926728317
| 23> H   2.17006421520029 3.50363016299047 -0.25558549984149
| 24> O   1.25113568048978 -0.51861154270477 -0.60008082330063
| 25> C   1.91661985625362 -1.42331962498598 0.02116362856259
| 26> O   1.79841572795636 -1.76030105520859 1.20359723998346
| 27> C   2.98072109758343 -2.10422845033464 -0.85754497041203
| 28> H   3.8547765570867 -1.43551914737088 -0.94076543727688
| 29> H   3.30309954174914 -3.05387144593189 -0.40551856665993
| 30> H   2.59612875282126 -2.26963420391765 -1.8756779573666
| 31> *
| 32>
| 33>                          ****END OF INPUT****

CARTESIAN COORDINATES (ANGSTROEM)
---------------------------------
  C      0.249955    0.722147    0.505976
  C      0.566677    2.072299   -0.011131
  O     -0.153822    2.634891    0.996790
  H      0.790480    0.437572    1.408275
  H      0.151631    2.215236   -1.048539
  C     -1.114366    0.159177    0.355057
  C     -2.176217    0.920818   -0.166369
  C     -1.361741   -1.176619    0.720890
  C     -3.437174    0.350803   -0.347745
  H     -2.000086    1.980903   -0.350304
  C     -2.626494   -1.741830    0.542195
  H     -0.535935   -1.758703    1.137050
  C     -3.670681   -0.985676   -0.000880
  H     -4.252609    0.960732   -0.749885
  H     -2.797369   -2.783985    0.830279
  H     -4.661783   -1.428881   -0.141058
  C      2.056651    2.423349   -0.057388
  H      2.517546    2.212582    0.922709
  H      2.584374    1.847042   -0.835509
  H      2.170064    3.503630   -0.255585
  O      1.251136   -0.518612   -0.600081
  C      1.916620   -1.423320    0.021164
  O      1.798416   -1.760301    1.203597
  C      2.980721   -2.104228   -0.857545
  H      3.854777   -1.435519   -0.940765
  H      3.303100   -3.053871   -0.405519
  H      2.596129   -2.269634   -1.875678

 Total Charge           Charge          ....    0
 Multiplicity           Mult            ....    2
 Number of Electrons    NEL             ....  103
 Basis Dimension        Dim             ....  261

ORBITAL ENERGIES
----------------
                 SPIN UP ORBITALS
  NO   OCC          E(Eh)            E(eV)
   0   1.0000     -19.193541      -522.2828
   1   1.0000     -19.148761      -521.0643
   2   1.0000     -19.090754      -519.4858
   3   1.0000     -10.289877      -280.0018
   4   1.0000     -10.286291      -279.9042
   5   1.0000     -10.266521      -279.3662
   6   1.0000     -10.215818      -277.9865
   7   1.0000     -10.207705      -277.7658
   8   1.0000     -10.206574      -277.7350
   9   1.0000     -10.202765      -277.6313
  10   1.0000     -10.201642      -277.6008
  11   1.0000     -10.201521      -277.5975
  12   1.0000     -10.199283      -277.5366
  13   1.0000     -10.184798      -277.1424
  14   1.0000      -1.056585       -28.7511
  15   1.0000      -1.049240       -28.5513
  16   1.0000      -0.958530       -26.0829
  17   1.0000      -0.865398       -23.5487
  18   1.0000      -0.796061       -21.6619
  19   1.0000      -0.755982       -20.5713
  20   1.0000      -0.749193       -20.3866
  21   1.0000      -0.714826       -19.4514
  22   1.0000      -0.697488       -18.9796
  23   1.0000      -0.623606       -16.9692
  24   1.0000      -0.607085       -16.5196
  25   1.0000      -0.580043       -15.7838
  26   1.0000      -0.539985       -14.6937
  27   1.0000      -0.529425       -14.4064
  28   1.0000      -0.497082       -13.5263
  29   1.0000      -0.486796       -13.2464
  30   1.0000      -0.470227       -12.7955
  31   1.0000      -0.462052       -12.5731
  32   1.0000      -0.455880       -12.4051
  33   1.0000      -0.446193       -12.1415
  34   1.0000      -0.443379       -12.0650
  35   1.0000      -0.436575       -11.8798
  36   1.0000      -0.428008       -11.6467
  37   1.0000      -0.417842       -11.3701
  38   1.0000      -0.402021       -10.9395
  39   1.0000      -0.395205       -10.7541
  40   1.0000      -0.390709       -10.6317
  41   1.0000      -0.383473       -10.4348
  42   1.0000      -0.369596       -10.0572
  43   1.0000      -0.367863       -10.0100
  44   1.0000      -0.356043        -9.6884
  45   1.0000      -0.345204        -9.3935
  46   1.0000      -0.310419        -8.4469
  47   1.0000      -0.301075        -8.1927
  48   1.0000      -0.285441        -7.7672
  49   1.0000      -0.266909        -7.2630
  50   1.0000      -0.261415        -7.1135
  51   1.0000      -0.245977        -6.6934
  52   0.0000      -0.069520        -1.8917
  53   0.0000      -0.019162        -0.5214
  54   0.0000       0.007849         0.2136
  55   0.0000       0.037943         1.0325
  56   0.0000       0.059338         1.6147

                 SPIN DOWN ORBITALS
  NO   OCC          E(Eh)            E(eV)
   0   1.0000     -19.172217      -521.7025
   1   1.0000     -19.146380      -520.9995
   2   1.0000     -19.090405      -519.4763
   3   1.0000     -10.290007      -280.0053
   4   1.0000     -10.285130      -279.8726
   5   1.0000     -10.266604      -279.3685
   6   1.0000     -10.215486      -277.9775
   7   1.0000     -10.207304      -277.7549
   8   1.0000     -10.206248      -277.7261
   9   1.0000     -10.202919      -277.6355
  10   1.0000     -10.201508      -277.5971
  11   1.0000     -10.200893      -277.5804
  12   1.0000     -10.199218      -277.5348
  13   1.0000     -10.184503      -277.1344
  14   1.0000      -1.047628       -28.5074
  15   1.0000      -1.014143       -27.5962
  16   1.0000      -0.955698       -26.0059
  17   1.0000      -0.863925       -23.5086
  18   1.0000      -0.788666       -21.4607
  19   1.0000      -0.749381       -20.3917
  20   1.0000      -0.748403       -20.3651
  21   1.0000      -0.713467       -19.4144
  22   1.0000      -0.692633       -18.8475
  23   1.0000      -0.620451       -16.8833
  24   1.0000      -0.604502       -16.4493
  25   1.0000      -0.576718       -15.6933
  26   1.0000      -0.536998       -14.6124
  27   1.0000      -0.524163       -14.2632
  28   1.0000      -0.487099       -13.2546
  29   1.0000      -0.482271       -13.1233
  30   1.0000      -0.463466       -12.6115
  31   1.0000      -0.459249       -12.4968
  32   1.0000      -0.450635       -12.2624
  33   1.0000      -0.441279       -12.0078
  34   1.0000      -0.437883       -11.9154
  35   1.0000      -0.433615       -11.7993
  36   1.0000      -0.427597       -11.6355
  37   1.0000      -0.412129       -11.2146
  38   1.0000      -0.394311       -10.7297
  39   1.0000      -0.390574       -10.6281
  40   1.0000      -0.387585       -10.5467
  41   1.0000      -0.380151       -10.3444
  42   1.0000      -0.367093        -9.9891
  43   1.0000      -0.364571        -9.9205
  44   1.0000      -0.351290        -9.5591
  45   1.0000      -0.320930        -8.7330
  46   1.0000      -0.288867        -7.8605
  47   1.0000      -0.282092        -7.6761
  48   1.0000      -0.265063        -7.2127
  49   1.0000      -0.258237        -7.0270
  50   1.0000      -0.244311        -6.6480
  51   0.0000      -0.175701        -4.7811
  52   0.0000      -0.055341        -1.5059
  53   0.0000      -0.017935        -0.4880
  54   0.0000       0.011853         0.3225
  55   0.0000       0.039272         1.0687

MULLIKEN ATOMIC CHARGES AND SPIN POPULATIONS
--------------------------------------------
   0 C :    0.117084    0.000137
   1 C :    0.143985   -0.020107
   2 O :   -0.234349    0.803770
   3 H :    0.058220   -0.000276
   4 H :    0.004514    0.003016
   5 C :    0.021798    0.023915
   6 C :    0.016745    0.021198
   7 C :    0.008437    0.004041
   8 C :    0.021324   -0.013665
   9 H :    0.003361   -0.001942
  10 C :    0.020665   -0.000259
  11 H :    0.007067   -0.000210
  12 C :    0.039779    0.030874
  13 H :   -0.009465    0.000410
  14 H :   -0.005805   -0.000163
  15 H :   -0.004930   -0.001274
  16 C :    0.067687    0.034602
  17 H :    0.019246   -0.001460
  18 H :    0.039821    0.002058
  19 H :    0.028457    0.004286
  20 O :   -0.325480    0.089191
  21 C :    0.132020   -0.005774
  22 O :   -0.305467    0.013071
  23 C :    0.041891    0.013777
  24 H :    0.033799   -0.000011
  25 H :    0.032217    0.001368
  26 H :    0.027378   -0.000575
Sum of atomic charges         :    0.0000000

LOEWDIN ATOMIC CHARGES AND SPIN POPULATIONS
-------------------------------------------
   0 C :    0.191530    0.012048
   1 C :    0.019722    0.015037
   2 O :   -0.084334    0.776259
   3 H :    0.043404   -0.001128
   4 H :    0.014027    0.002069
   5 C :   -0.036212    0.017133
   6 C :    0.001119    0.018005
   7 C :    0.014829    0.006023
   8 C :   -0.025402   -0.007781
   9 H :    0.031042   -0.000332
  10 C :   -0.019702    0.001881
  11 H :    0.036496    0.000094
  12 C :   -0.001624    0.024458
  13 H :    0.030993   -0.000032
  14 H :    0.032552   -0.000069
  15 H :    0.031806   -0.000078
  16 C :   -0.047281    0.028297
  17 H :    0.031673   -0.000079
  18 H :    0.039610    0.001533
  19 H :    0.034820    0.002427
  20 O :   -0.172959    0.079824
  21 C :    0.042883   -0.000158
  22 O :   -0.249937    0.012075
  23 C :   -0.071008    0.011597
  24 H :    0.041702    0.000117
  25 H :    0.036323    0.001053
  26 H :    0.033928   -0.000274

  Mayer bond orders larger than 0.100000
B(  0-C ,  1-C ) :   0.9588 B(  0-C ,  2-O ) :   0.1679 B(  0-C ,  3-H ) :   0.9137
B(  0-C ,  5-C ) :   1.0725 B(  0-C , 20-O ) :   0.6037 B(  1-C ,  2-O ) :   1.0930
B(  1-C ,  4-H ) :   0.8852 B(  1-C , 16-C ) :   1.0643 B(  5-C ,  6-C ) :   1.3667
B(  5-C ,  7-C ) :   1.3672 B(  6-C ,  8-C ) :   1.3747 B(  6-C ,  9-H ) :   0.9627
B(  7-C , 10-C ) :   1.3941 B(  7-C , 11-H ) :   0.9703 B(  8-C , 12-C ) :   1.3803
B(  8-C , 13-H ) :   0.9802 B( 10-C , 12-C ) :   1.3513 B( 10-C , 14-H ) :   0.9839
B( 12-C , 15-H ) :   0.9856 B( 16-C , 17-H ) :   0.9514 B( 16-C , 18-H ) :   0.9526
B( 16-C , 19-H ) :   0.9540 B( 20-O , 21-C ) :   1.3424 B( 21-C , 22-O ) :   1.8981
B( 21-C , 23-C ) :   1.0011 B( 23-C , 24-H ) :   0.9527 B( 23-C , 25-H ) :   0.9609
B( 23-C , 26-H ) :   0.9569

Dispersion correction           -0.049553150
FINAL SINGLE POINT ENERGY      -651.751992100881
Dispersion correction             ... done (  0.0 sec)

DIPOLE MOMENT
-------------

Method             : SCF
Type of density    : Electron Density
Multiplicity       :   2
Irrep              :   0
Energy             :  -651.7024389509331286 Eh
Basis              : AO
                                X                 Y                 Z
Electronic contribution:     -5.792304518      -0.115170182       3.293908437
Nuclear contribution   :      5.394782826       0.613734827      -4.149045865
                        -----------------------------------------
Total Dipole Moment    :     -0.397521692       0.498564645      -0.855137428
                        -----------------------------------------
Magnitude (a.u.)       :      1.066700624
Magnitude (Debye)      :      2.711337513

Rotational constants in cm-1:             0.028933             0.017922             0.012283
Rotational constants in MHz :           867.399166           537.281138           368.223330

                             ****ORCA TERMINATED NORMALLY****
TOTAL RUN TIME: 0 days 0 hours 0 minutes 56 seconds 773 msec
