                         Program Version 6.1.0  -  RELEASE   -
|  1> ! B3LYP def2-SVP d3 EnGrad
|  2> %pal nprocs 6 end
|  3> *xyz 0 1
|  4> C   -0.64833957118468 -1.09980282862691 0.5330215450068
|  5> H   -1.58300075317102 -1.3254418005219 1.05941553034247
|  6> C   0.26807584501475 -0.33922235659862 1.15906144153705
|  7> H   1.23653172262293 -0.10957747072002 0.70443877500635
|  8> H   0.07891493776327 0.07157082251094 2.15364552304468
|  9> C   -0.53066229078525 -1.66133251318687 -0.8185340853317
| 10> C   0.23695316669791 -1.17491432668489 -1.80639793154848
| 11> H   0.8496371226745 -0.27765944370917 -1.67634036296244
| 12> H   -1.16036683288398 -2.53429655561143 -1.02511176487244
| 13> H   0.2706980016776 -1.65745463760311 -2.78634641681792
| 14> S   -1.28120181976473 1.79453864403203 -0.42853358293738
| 15> O   -2.68783099369493 1.39088111403245 -0.34835514288698
| 16> O   -0.80351129496639 2.79763462268749 0.52861993242001
| 17> *
| 18>
| 19>                          ****END OF INPUT****

CARTESIAN COORDINATES (ANGSTROEM)
---------------------------------
  C     -0.648340   -1.099803    0.533022
  H     -1.583001   -1.325442    1.059416
  C      0.268076   -0.339222    1.159061
  H      1.236532   -0.109577    0.704439
  H      0.078915    0.071571    2.153646
  C     -0.530662   -1.661333   -0.818534
  C      0.236953   -1.174914   -1.806398
  H      0.849637   -0.277659   -1.676340
  H     -1.160367   -2.534297   -1.025112
  H      0.270698   -1.657455   -2.786346
  S     -1.281202    1.794539   -0.428534
  O     -2.687831    1.390881   -0.348355
  O     -0.803511    2.797635    0.528620

 Total Charge           Charge          ....    0
 Multiplicity           Mult            ....    1
 Number of Electrons    NEL             ....   62
 Basis Dimension        Dim             ....  132

ORBITAL ENERGIES
----------------

  NO   OCC          E(Eh)            E(eV)
   0   2.0000     -89.019976     -2422.3567
   1   2.0000     -19.164055      -521.4804
   2   2.0000     -19.163925      -521.4769
   3   2.0000     -10.212258      -277.8897
   4   2.0000     -10.207156      -277.7508
   5   2.0000     -10.205159      -277.6965
   6   2.0000     -10.201977      -277.6099
   7   2.0000      -8.097369      -220.3406
   8   2.0000      -6.065850      -165.0602
   9   2.0000      -6.064949      -165.0357
  10   2.0000      -6.058618      -164.8634
  11   2.0000      -1.108751       -30.1706
  12   2.0000      -1.011097       -27.5134
  13   2.0000      -0.812497       -22.1092
  14   2.0000      -0.735337       -20.0095
  15   2.0000      -0.628129       -17.0923
  16   2.0000      -0.615011       -16.7353
  17   2.0000      -0.537278       -14.6201
  18   2.0000      -0.503844       -13.7103
  19   2.0000      -0.473206       -12.8766
  20   2.0000      -0.468030       -12.7358
  21   2.0000      -0.465803       -12.6751
  22   2.0000      -0.454048       -12.3553
  23   2.0000      -0.434913       -11.8346
  24   2.0000      -0.380700       -10.3594
  25   2.0000      -0.364493        -9.9184
  26   2.0000      -0.346972        -9.4416
  27   2.0000      -0.336839        -9.1659
  28   2.0000      -0.330618        -8.9966
  29   2.0000      -0.305574        -8.3151
  30   2.0000      -0.254310        -6.9201
  31   0.0000      -0.111095        -3.0231
  32   0.0000      -0.052312        -1.4235
  33   0.0000       0.050032         1.3614
  34   0.0000       0.064732         1.7614
  35   0.0000       0.065715         1.7882

MULLIKEN ATOMIC CHARGES
-----------------------
   0 C :   -0.048916
   1 H :    0.020728
   2 C :   -0.034989
   3 H :    0.033368
   4 H :    0.044232
   5 C :   -0.004560
   6 C :   -0.030972
   7 H :    0.018235
   8 H :    0.009639
   9 H :    0.033613
  10 S :    0.750616
  11 O :   -0.395771
  12 O :   -0.395224
Sum of atomic charges:    0.0000000

LOEWDIN ATOMIC CHARGES
----------------------
   0 C :   -0.037723
   1 H :    0.034833
   2 C :   -0.047947
   3 H :    0.025048
   4 H :    0.032281
   5 C :   -0.035664
   6 C :   -0.037281
   7 H :    0.017380
   8 H :    0.033050
   9 H :    0.029762
  10 S :    0.833897
  11 O :   -0.423298
  12 O :   -0.424339

  Mayer bond orders larger than 0.100000
B(  0-C ,  1-H ) :   0.9584 B(  0-C ,  2-C ) :   1.8858 B(  0-C ,  5-C ) :   1.0860
B(  2-C ,  3-H ) :   0.9548 B(  2-C ,  4-H ) :   0.9501 B(  5-C ,  6-C ) :   1.9464
B(  5-C ,  8-H ) :   0.9576 B(  6-C ,  7-H ) :   0.9527 B(  6-C ,  9-H ) :   0.9496
B( 10-S , 11-O ) :   1.7877 B( 10-S , 12-O ) :   1.7849 B( 11-O , 12-O ) :   0.2158

Dispersion correction           -0.020553249
FINAL SINGLE POINT ENERGY      -704.025536927491
Dispersion correction             ... done (  0.0 sec)

DIPOLE MOMENT
-------------

Method             : SCF
Type of density    : Electron Density
Multiplicity       :   1
Irrep              :   0
Energy             :  -704.0049836785578918 Eh
Basis              : AO
                                X                 Y                 Z
Electronic contribution:     -4.161536519       8.015198878      -0.123437548
Nuclear contribution   :      4.716120390      -8.669732505      -0.331634192
                        -----------------------------------------
Total Dipole Moment    :      0.554583871      -0.654533627      -0.455071741
                        -----------------------------------------
Magnitude (a.u.)       :      0.971116794
Magnitude (Debye)      :      2.468382725

Rotational constants in cm-1:             0.110727             0.042719             0.038737
Rotational constants in MHz :          3319.523645          1280.677840          1161.319732

                             ****ORCA TERMINATED NORMALLY****
TOTAL RUN TIME: 0 days 0 hours 0 minutes 17 seconds 683 msec
