                         Program Version 6.1.0  -  RELEASE   -
|  1> ! B3LYP def2-SVP d3 EnGrad
|  2> %pal nprocs 6 end
|  3> *xyz 0 1
|  4> H   2.94399844233361 -0.70314152713294 -0.15648885838261
|  5> C   2.49157078833162 0.22259831116306 0.20777486647041
|  6> C   1.23306187187604 0.54725225170534 -0.1070658666256
|  7> H   3.08555749769563 0.89053903173701 0.83295275469979
|  8> H   0.78289747334945 1.4812330069059 0.25887183545667
|  9> O   0.42980575396508 -0.21976291414022 -0.88077306403112
| 10> H   -1.64865342231841 -1.22748370107459 0.53495175128565
| 11> O   -2.16887929171081 0.514729156582 -0.36446226663223
| 12> C   -2.40654752138914 -0.43131823339172 0.34731088768087
| 13> H   -3.39629388899484 -0.54833615321379 0.84864368998568
| 14> H   -0.44662270313826 0.20319777085991 -0.9430347299075
| 15> *
| 16>
| 17>                          ****END OF INPUT****

CARTESIAN COORDINATES (ANGSTROEM)
---------------------------------
  H      2.943998   -0.703142   -0.156489
  C      2.491571    0.222598    0.207775
  C      1.233062    0.547252   -0.107066
  H      3.085557    0.890539    0.832953
  H      0.782897    1.481233    0.258872
  O      0.429806   -0.219763   -0.880773
  H     -1.648653   -1.227484    0.534952
  O     -2.168879    0.514729   -0.364462
  C     -2.406548   -0.431318    0.347311
  H     -3.396294   -0.548336    0.848644
  H     -0.446623    0.203198   -0.943035

 Total Charge           Charge          ....    0
 Multiplicity           Mult            ....    1
 Number of Electrons    NEL             ....   40
 Basis Dimension        Dim             ....  100

ORBITAL ENERGIES
----------------

  NO   OCC          E(Eh)            E(eV)
   0   2.0000     -19.185118      -522.0536
   1   2.0000     -19.137630      -520.7614
   2   2.0000     -10.313660      -280.6490
   3   2.0000     -10.225784      -278.2577
   4   2.0000     -10.152065      -276.2517
   5   2.0000      -1.082207       -29.4484
   6   2.0000      -1.022881       -27.8340
   7   2.0000      -0.724015       -19.7014
   8   2.0000      -0.648994       -17.6600
   9   2.0000      -0.566580       -15.4174
  10   2.0000      -0.534041       -14.5320
  11   2.0000      -0.512376       -13.9425
  12   2.0000      -0.480698       -13.0804
  13   2.0000      -0.433476       -11.7955
  14   2.0000      -0.424168       -11.5422
  15   2.0000      -0.384732       -10.4691
  16   2.0000      -0.372258       -10.1297
  17   2.0000      -0.334646        -9.1062
  18   2.0000      -0.299064        -8.1379
  19   2.0000      -0.214124        -5.8266
  20   0.0000      -0.072636        -1.9765
  21   0.0000       0.046835         1.2744
  22   0.0000       0.061534         1.6744
  23   0.0000       0.084410         2.2969
  24   0.0000       0.117115         3.1869

MULLIKEN ATOMIC CHARGES
-----------------------
   0 H :    0.013160
   1 C :   -0.078812
   2 C :    0.070938
   3 H :    0.012131
   4 H :   -0.007200
   5 O :   -0.238513
   6 H :    0.052007
   7 O :   -0.229727
   8 C :    0.179843
   9 H :    0.047551
  10 H :    0.178621
Sum of atomic charges:    0.0000000

LOEWDIN ATOMIC CHARGES
----------------------
   0 H :    0.022781
   1 C :   -0.146216
   2 C :    0.042700
   3 H :    0.024316
   4 H :    0.008632
   5 O :   -0.075920
   6 H :    0.004284
   7 O :   -0.108031
   8 C :    0.165341
   9 H :    0.006828
  10 H :    0.055284

  Mayer bond orders larger than 0.100000
B(  0-H ,  1-C ) :   0.9530 B(  1-C ,  2-C ) :   1.9304 B(  1-C ,  3-H ) :   0.9506
B(  2-C ,  4-H ) :   0.9562 B(  2-C ,  5-O ) :   1.1667 B(  5-O , 10-H ) :   0.9170
B(  6-H ,  8-C ) :   0.9199 B(  7-O ,  8-C ) :   2.0419 B(  7-O , 10-H ) :   0.1175
B(  8-C ,  9-H ) :   0.9255

Dispersion correction           -0.009830649
FINAL SINGLE POINT ENERGY      -267.987108537428
Dispersion correction             ... done (  0.0 sec)

DIPOLE MOMENT
-------------

Method             : SCF
Type of density    : Electron Density
Multiplicity       :   1
Irrep              :   0
Energy             :  -267.9772778881695103 Eh
Basis              : AO
                                X                 Y                 Z
Electronic contribution:     -3.142711353       0.332156094      -1.605740065
Nuclear contribution   :      2.027817923      -0.584033959       2.277240077
                        -----------------------------------------
Total Dipole Moment    :     -1.114893430      -0.251877865       0.671500012
                        -----------------------------------------
Magnitude (a.u.)       :      1.325647799
Magnitude (Debye)      :      3.369528924

Rotational constants in cm-1:             0.528615             0.058469             0.058034
Rotational constants in MHz :         15847.478804          1752.868008          1739.822355

                             ****ORCA TERMINATED NORMALLY****
TOTAL RUN TIME: 0 days 0 hours 0 minutes 10 seconds 713 msec
