                         Program Version 6.1.0  -  RELEASE   -
|  1> ! B3LYP def2-SVP d3 EnGrad
|  2> %pal nprocs 6 end
|  3> *xyz 0 1
|  4> C   -0.00182139946952 0.08789344429113 1.360418989e-05
|  5> O   -0.00208174272561 -1.04244068716584 3.065283902e-05
|  6> H   0.01243898492254 3.89020854504924 -2.725507815e-05
|  7> H   0.0090741572726 3.12860669782546 -1.700195075e-05
|  8> *
|  9>
| 10>                          ****END OF INPUT****

CARTESIAN COORDINATES (ANGSTROEM)
---------------------------------
  C     -0.001821    0.087893    0.000014
  O     -0.002082   -1.042441    0.000031
  H      0.012439    3.890209   -0.000027
  H      0.009074    3.128607   -0.000017

 Total Charge           Charge          ....    0
 Multiplicity           Mult            ....    1
 Number of Electrons    NEL             ....   16
 Basis Dimension        Dim             ....   38

ORBITAL ENERGIES
----------------

  NO   OCC          E(Eh)            E(eV)
   0   2.0000     -19.246155      -523.7145
   1   2.0000     -10.304662      -280.4041
   2   2.0000      -1.154913       -31.4268
   3   2.0000      -0.570816       -15.5327
   4   2.0000      -0.479018       -13.0347
   5   2.0000      -0.479018       -13.0347
   6   2.0000      -0.416126       -11.3234
   7   2.0000      -0.375472       -10.2171
   8   0.0000      -0.029018        -0.7896
   9   0.0000      -0.029018        -0.7896
  10   0.0000       0.083417         2.2699
  11   0.0000       0.225696         6.1415
  12   0.0000       0.321537         8.7495

MULLIKEN ATOMIC CHARGES
-----------------------
   0 C :    0.016522
   1 O :   -0.010064
   2 H :   -0.021327
   3 H :    0.014869
Sum of atomic charges:   -0.0000000

LOEWDIN ATOMIC CHARGES
----------------------
   0 C :   -0.047364
   1 O :    0.054128
   2 H :   -0.009163
   3 H :    0.002399

  Mayer bond orders larger than 0.100000
B(  0-C ,  1-O ) :   2.5410 B(  2-H ,  3-H ) :   0.9949

Dispersion correction           -0.001289379
FINAL SINGLE POINT ENERGY      -114.341579573609
Dispersion correction             ... done (  0.0 sec)

DIPOLE MOMENT
-------------

Method             : SCF
Type of density    : Electron Density
Multiplicity       :   1
Irrep              :   0
Energy             :  -114.3402901941890519 Eh
Basis              : AO
                                X                 Y                 Z
Electronic contribution:     -0.022475919      -7.242018332       0.000081249
Nuclear contribution   :      0.022262117       7.107812151      -0.000079437
                        -----------------------------------------
Total Dipole Moment    :     -0.000213802      -0.134206181       0.000001811
                        -----------------------------------------
Magnitude (a.u.)       :      0.134206351
Magnitude (Debye)      :      0.341125436

Rotational constants in cm-1:        287959.100634             0.419688             0.419688
Rotational constants in MHz :    8632796658.265831         12581.940434         12581.922096

                             ****ORCA TERMINATED NORMALLY****
TOTAL RUN TIME: 0 days 0 hours 0 minutes 4 seconds 413 msec
