                         Program Version 6.1.0  -  RELEASE   -
|  1> ! B3LYP def2-SVP d3 EnGrad
|  2> %pal nprocs 6 end
|  3> *xyz 0 1
|  4> C   -1.66179254894021 0.97263378517721 -0.59594459385035
|  5> C   -0.36356958337039 0.25496502466385 -0.15387863598254
|  6> O   0.50726738838639 1.14192050020364 0.28419906344021
|  7> F   -2.10995960549123 1.80014688100891 0.35400212261514
|  8> F   -2.6122575602679 0.08309055053131 -0.86632698624751
|  9> F   -1.42178232502036 1.69228156978911 -1.70171464180368
| 10> O   -0.22500728806099 -0.93692431897416 -0.24900734347962
| 11> C   1.8336389088321 0.67846101425172 0.66933201183923
| 12> C   2.7260375776904 0.52845573737906 -0.54679741352626
| 13> N   1.9606253029437 -2.59628311865197 1.24530515813293
| 14> H   2.19633069430609 1.45958904870741 1.35047610003382
| 15> H   1.75225838934877 -0.27960167724118 1.20320934043432
| 16> H   3.73633163588831 0.23700348341683 -0.21956603920077
| 17> H   2.34814988848964 -0.26266526374429 -1.21174990674798
| 18> H   2.79837521070268 1.46895933300759 -1.11460770581763
| 19> H   2.56686455104687 -3.21259278971069 0.70034755819387
| 20> H   1.60899012833745 -3.16405703667541 2.01870097257057
| 21> H   1.15231823517866 -2.38959672313896 0.65261793939627
| 22> *
| 23>
| 24>                          ****END OF INPUT****

CARTESIAN COORDINATES (ANGSTROEM)
---------------------------------
  C     -1.661793    0.972634   -0.595945
  C     -0.363570    0.254965   -0.153879
  O      0.507267    1.141921    0.284199
  F     -2.109960    1.800147    0.354002
  F     -2.612258    0.083091   -0.866327
  F     -1.421782    1.692282   -1.701715
  O     -0.225007   -0.936924   -0.249007
  C      1.833639    0.678461    0.669332
  C      2.726038    0.528456   -0.546797
  N      1.960625   -2.596283    1.245305
  H      2.196331    1.459589    1.350476
  H      1.752258   -0.279602    1.203209
  H      3.736332    0.237003   -0.219566
  H      2.348150   -0.262665   -1.211750
  H      2.798375    1.468959   -1.114608
  H      2.566865   -3.212593    0.700348
  H      1.608990   -3.164057    2.018701
  H      1.152318   -2.389597    0.652618

 Total Charge           Charge          ....    0
 Multiplicity           Mult            ....    1
 Number of Electrons    NEL             ....   82
 Basis Dimension        Dim             ....  180

ORBITAL ENERGIES
----------------

  NO   OCC          E(Eh)            E(eV)
   0   2.0000     -24.725258      -672.8085
   1   2.0000     -24.725015      -672.8019
   2   2.0000     -24.724897      -672.7987
   3   2.0000     -19.199817      -522.4536
   4   2.0000     -19.152070      -521.1543
   5   2.0000     -14.300414      -389.1340
   6   2.0000     -10.440547      -284.1017
   7   2.0000     -10.341620      -281.4098
   8   2.0000     -10.248043      -278.8634
   9   2.0000     -10.191354      -277.3208
  10   2.0000      -1.307841       -35.5882
  11   2.0000      -1.215792       -33.0834
  12   2.0000      -1.214015       -33.0350
  13   2.0000      -1.120791       -30.4983
  14   2.0000      -1.036528       -28.2054
  15   2.0000      -0.831524       -22.6269
  16   2.0000      -0.788979       -21.4692
  17   2.0000      -0.730668       -19.8825
  18   2.0000      -0.667289       -18.1579
  19   2.0000      -0.621190       -16.9034
  20   2.0000      -0.601763       -16.3748
  21   2.0000      -0.597873       -16.2689
  22   2.0000      -0.555770       -15.1233
  23   2.0000      -0.503325       -13.6962
  24   2.0000      -0.490597       -13.3498
  25   2.0000      -0.482542       -13.1306
  26   2.0000      -0.474420       -12.9096
  27   2.0000      -0.470253       -12.7962
  28   2.0000      -0.450881       -12.2691
  29   2.0000      -0.441786       -12.0216
  30   2.0000      -0.438225       -11.9247
  31   2.0000      -0.437296       -11.8994
  32   2.0000      -0.429751       -11.6941
  33   2.0000      -0.415360       -11.3025
  34   2.0000      -0.411732       -11.2038
  35   2.0000      -0.396056       -10.7772
  36   2.0000      -0.379990       -10.3401
  37   2.0000      -0.351853        -9.5744
  38   2.0000      -0.324944        -8.8422
  39   2.0000      -0.304745        -8.2925
  40   2.0000      -0.256402        -6.9770
  41   0.0000      -0.028725        -0.7817
  42   0.0000       0.051731         1.4077
  43   0.0000       0.079812         2.1718
  44   0.0000       0.097233         2.6459
  45   0.0000       0.109853         2.9893

MULLIKEN ATOMIC CHARGES
-----------------------
   0 C :    0.535139
   1 C :    0.131169
   2 O :   -0.298140
   3 F :   -0.160073
   4 F :   -0.147406
   5 F :   -0.167688
   6 O :   -0.212855
   7 C :    0.180866
   8 C :   -0.028179
   9 N :   -0.234707
  10 H :    0.022172
  11 H :    0.028067
  12 H :    0.030245
  13 H :    0.028291
  14 H :    0.027049
  15 H :    0.083042
  16 H :    0.084603
  17 H :    0.098405
Sum of atomic charges:   -0.0000000

LOEWDIN ATOMIC CHARGES
----------------------
   0 C :    0.137548
   1 C :    0.034059
   2 O :   -0.066109
   3 F :   -0.050817
   4 F :   -0.038151
   5 F :   -0.054953
   6 O :   -0.148332
   7 C :    0.097540
   8 C :   -0.062861
   9 N :   -0.148530
  10 H :    0.025592
  11 H :    0.018765
  12 H :    0.038772
  13 H :    0.029239
  14 H :    0.027483
  15 H :    0.055671
  16 H :    0.056280
  17 H :    0.048804

  Mayer bond orders larger than 0.100000
B(  0-C ,  1-C ) :   0.8551 B(  0-C ,  3-F ) :   1.1527 B(  0-C ,  4-F ) :   1.1729
B(  0-C ,  5-F ) :   1.1405 B(  1-C ,  2-O ) :   1.2477 B(  1-C ,  6-O ) :   2.0161
B(  2-O ,  6-O ) :   0.1012 B(  2-O ,  7-C ) :   0.8437 B(  7-C ,  8-C ) :   1.1305
B(  7-C , 10-H ) :   0.9535 B(  7-C , 11-H ) :   0.9144 B(  8-C , 12-H ) :   0.9602
B(  8-C , 13-H ) :   0.9650 B(  8-C , 14-H ) :   0.9659 B(  9-N , 11-H ) :   0.1365
B(  9-N , 15-H ) :   0.9912 B(  9-N , 16-H ) :   0.9924 B(  9-N , 17-H ) :   0.9621

Dispersion correction           -0.021429470
FINAL SINGLE POINT ENERGY      -661.197498420571
Dispersion correction             ... done (  0.0 sec)

DIPOLE MOMENT
-------------

Method             : SCF
Type of density    : Electron Density
Multiplicity       :   1
Irrep              :   0
Energy             :  -661.1760689506236304 Eh
Basis              : AO
                                X                 Y                 Z
Electronic contribution:    -22.974791789      10.464156053      -5.852439333
Nuclear contribution   :     23.821757532     -10.819510300       6.072604798
                        -----------------------------------------
Total Dipole Moment    :      0.846965743      -0.355354247       0.220165465
                        -----------------------------------------
Magnitude (a.u.)       :      0.944510690
Magnitude (Debye)      :      2.400755382

Rotational constants in cm-1:             0.063221             0.023747             0.020217
Rotational constants in MHz :          1895.329839           711.911163           606.095771

                             ****ORCA TERMINATED NORMALLY****
TOTAL RUN TIME: 0 days 0 hours 0 minutes 25 seconds 187 msec
