                         Program Version 6.1.0  -  RELEASE   -
|  1> ! B3LYP def2-SVP d3 EnGrad
|  2> %pal nprocs 6 end
|  3> *xyz 0 1
|  4> H   -2.54868361975784 0.11790995358611 0.34569787592755
|  5> C   -1.66451298638359 0.71553588588702 0.08757813026487
|  6> C   -0.43364444437295 -0.15492826734937 0.1073543602409
|  7> H   -1.79718083332575 1.13014030080456 -0.92648130178949
|  8> H   -1.56282137453958 1.56858308832874 0.77709926659269
|  9> O   -0.48131861343915 -1.36809473418112 0.13726283719791
| 10> H   1.51057417246657 -1.27830156217053 0.05985167518472
| 11> O   1.95652573942473 -0.41206146181981 0.00886327981742
| 12> C   0.93144654155526 0.52161172304985 0.07403226047273
| 13> H   0.95007316571618 1.21991324286551 -0.789730287785
| 14> H   1.0034442526561 1.16378883099906 0.97982390387566
| 15> *
| 16>
| 17>                          ****END OF INPUT****

CARTESIAN COORDINATES (ANGSTROEM)
---------------------------------
  H     -2.548684    0.117910    0.345698
  C     -1.664513    0.715536    0.087578
  C     -0.433644   -0.154928    0.107354
  H     -1.797181    1.130140   -0.926481
  H     -1.562821    1.568583    0.777099
  O     -0.481319   -1.368095    0.137263
  H      1.510574   -1.278302    0.059852
  O      1.956526   -0.412061    0.008863
  C      0.931447    0.521612    0.074032
  H      0.950073    1.219913   -0.789730
  H      1.003444    1.163789    0.979824

 Total Charge           Charge          ....    0
 Multiplicity           Mult            ....    1
 Number of Electrons    NEL             ....   40
 Basis Dimension        Dim             ....  100

ORBITAL ENERGIES
----------------

  NO   OCC          E(Eh)            E(eV)
   0   2.0000     -19.143777      -520.9287
   1   2.0000     -19.120130      -520.2852
   2   2.0000     -10.285674      -279.8874
   3   2.0000     -10.241882      -278.6958
   4   2.0000     -10.207266      -277.7538
   5   2.0000      -1.056853       -28.7584
   6   2.0000      -1.000741       -27.2315
   7   2.0000      -0.767248       -20.8779
   8   2.0000      -0.689580       -18.7644
   9   2.0000      -0.557694       -15.1756
  10   2.0000      -0.504920       -13.7396
  11   2.0000      -0.483752       -13.1636
  12   2.0000      -0.471041       -12.8177
  13   2.0000      -0.430404       -11.7119
  14   2.0000      -0.428483       -11.6596
  15   2.0000      -0.414013       -11.2659
  16   2.0000      -0.370504       -10.0819
  17   2.0000      -0.341930        -9.3044
  18   2.0000      -0.274336        -7.4651
  19   2.0000      -0.269011        -7.3202
  20   0.0000      -0.030526        -0.8307
  21   0.0000       0.046049         1.2531
  22   0.0000       0.093472         2.5435
  23   0.0000       0.106901         2.9089
  24   0.0000       0.113864         3.0984

MULLIKEN ATOMIC CHARGES
-----------------------
   0 H :    0.040950
   1 C :    0.042052
   2 C :   -0.058413
   3 H :    0.048689
   4 H :    0.034316
   5 O :   -0.221766
   6 H :    0.161565
   7 O :   -0.296794
   8 C :    0.228455
   9 H :    0.010015
  10 H :    0.010931
Sum of atomic charges:    0.0000000

LOEWDIN ATOMIC CHARGES
----------------------
   0 H :    0.042301
   1 C :   -0.072749
   2 C :    0.071713
   3 H :    0.051338
   4 H :    0.040996
   5 O :   -0.146001
   6 H :    0.063727
   7 O :   -0.135721
   8 C :    0.037893
   9 H :    0.023194
  10 H :    0.023309

  Mayer bond orders larger than 0.100000
B(  0-H ,  1-C ) :   0.9506 B(  1-C ,  2-C ) :   1.0265 B(  1-C ,  3-H ) :   0.9439
B(  1-C ,  4-H ) :   0.9536 B(  2-C ,  5-O ) :   2.0967 B(  2-C ,  8-C ) :   0.9566
B(  6-H ,  7-O ) :   0.9445 B(  7-O ,  8-C ) :   1.1349 B(  8-C ,  9-H ) :   0.9221
B(  8-C , 10-H ) :   0.9095

Dispersion correction           -0.011878021
FINAL SINGLE POINT ENERGY      -268.033468684670
Dispersion correction             ... done (  0.1 sec)

DIPOLE MOMENT
-------------

Method             : SCF
Type of density    : Electron Density
Multiplicity       :   1
Irrep              :   0
Energy             :  -268.0215906634371095 Eh
Basis              : AO
                                X                 Y                 Z
Electronic contribution:      2.053091638      -3.631750346       0.038662037
Nuclear contribution   :     -2.815845657       4.533875217      -0.038879537
                        -----------------------------------------
Total Dipole Moment    :     -0.762754019       0.902124872      -0.000217500
                        -----------------------------------------
Magnitude (a.u.)       :      1.181364899
Magnitude (Debye)      :      3.002790938

Rotational constants in cm-1:             0.337910             0.127513             0.095957
Rotational constants in MHz :         10130.283932          3822.758257          2876.730922

                             ****ORCA TERMINATED NORMALLY****
TOTAL RUN TIME: 0 days 0 hours 0 minutes 12 seconds 247 msec
