                         Program Version 6.1.0  -  RELEASE   -
|  1> ! B3LYP def2-SVP d3 EnGrad
|  2> %pal nprocs 6 end
|  3> *xyz 0 1
|  4> C   -3.04347311082097 1.22446328604673 -0.06938989830847
|  5> C   -2.43415631414004 0.04415491858594 -0.21080080988922
|  6> H   -2.81058999834088 1.88987620626786 0.76909403563432
|  7> H   -3.79812662772203 1.56928213266814 -0.78225714132432
|  8> C   -1.38556185061648 -0.5153479181713 0.70829007519665
|  9> H   -2.69506857144252 -0.58707157530605 -1.07190091032989
| 10> C   -0.02962150947334 -0.75994399156094 0.00808235868131
| 11> H   -1.74075833950023 -1.48146736625732 1.11197540339779
| 12> H   -1.23963772371405 0.15877473815881 1.56881575380254
| 13> C   0.63631539271109 0.50308803695813 -0.45854284023481
| 14> H   -0.20183104654269 -1.42409011850252 -0.86092054108344
| 15> H   0.64231637223266 -1.30561763836492 0.69122174371637
| 16> C   1.84762449278914 0.91871328368038 -0.07860619134922
| 17> H   0.0534616073878 1.12275110316835 -1.15208227676047
| 18> H   2.46045868735481 0.33573922882586 0.61836595835187
| 19> H   2.27651853983777 1.85341567380283 -0.45117471950101
| 20> *
| 21>
| 22>                          ****END OF INPUT****

CARTESIAN COORDINATES (ANGSTROEM)
---------------------------------
  C     -3.043473    1.224463   -0.069390
  C     -2.434156    0.044155   -0.210801
  H     -2.810590    1.889876    0.769094
  H     -3.798127    1.569282   -0.782257
  C     -1.385562   -0.515348    0.708290
  H     -2.695069   -0.587072   -1.071901
  C     -0.029622   -0.759944    0.008082
  H     -1.740758   -1.481467    1.111975
  H     -1.239638    0.158775    1.568816
  C      0.636315    0.503088   -0.458543
  H     -0.201831   -1.424090   -0.860921
  H      0.642316   -1.305618    0.691222
  C      1.847624    0.918713   -0.078606
  H      0.053462    1.122751   -1.152082
  H      2.460459    0.335739    0.618366
  H      2.276519    1.853416   -0.451175

 Total Charge           Charge          ....    0
 Multiplicity           Mult            ....    1
 Number of Electrons    NEL             ....   46
 Basis Dimension        Dim             ....  134

ORBITAL ENERGIES
----------------

  NO   OCC          E(Eh)            E(eV)
   0   2.0000     -10.188142      -277.2334
   1   2.0000     -10.188081      -277.2318
   2   2.0000     -10.187611      -277.2190
   3   2.0000     -10.183340      -277.1028
   4   2.0000     -10.178917      -276.9824
   5   2.0000     -10.176084      -276.9053
   6   2.0000      -0.803942       -21.8764
   7   2.0000      -0.758484       -20.6394
   8   2.0000      -0.703598       -19.1459
   9   2.0000      -0.623681       -16.9712
  10   2.0000      -0.553395       -15.0587
  11   2.0000      -0.536162       -14.5897
  12   2.0000      -0.470537       -12.8040
  13   2.0000      -0.456326       -12.4172
  14   2.0000      -0.430870       -11.7246
  15   2.0000      -0.428394       -11.6572
  16   2.0000      -0.392017       -10.6673
  17   2.0000      -0.367743       -10.0068
  18   2.0000      -0.362148        -9.8546
  19   2.0000      -0.336125        -9.1464
  20   2.0000      -0.329247        -8.9593
  21   2.0000      -0.262884        -7.1534
  22   2.0000      -0.251041        -6.8312
  23   0.0000       0.009814         0.2671
  24   0.0000       0.018429         0.5015
  25   0.0000       0.075781         2.0621
  26   0.0000       0.087004         2.3675
  27   0.0000       0.094585         2.5738

MULLIKEN ATOMIC CHARGES
-----------------------
   0 C :   -0.025839
   1 C :   -0.089511
   2 H :    0.013772
   3 H :    0.018561
   4 C :    0.086788
   5 H :   -0.003393
   6 C :    0.060330
   7 H :    0.009227
   8 H :   -0.000757
   9 C :   -0.074076
  10 H :    0.010783
  11 H :   -0.006069
  12 C :   -0.033185
  13 H :    0.005577
  14 H :    0.009700
  15 H :    0.018091
Sum of atomic charges:    0.0000000

LOEWDIN ATOMIC CHARGES
----------------------
   0 C :   -0.063674
   1 C :   -0.027433
   2 H :    0.020879
   3 H :    0.022926
   4 C :   -0.027847
   5 H :    0.021942
   6 C :   -0.028932
   7 H :    0.030382
   8 H :    0.024847
   9 C :   -0.024591
  10 H :    0.027999
  11 H :    0.024465
  12 C :   -0.065904
  13 H :    0.024118
  14 H :    0.018478
  15 H :    0.022345

  Mayer bond orders larger than 0.100000
B(  0-C ,  1-C ) :   2.0096 B(  0-C ,  2-H ) :   0.9522 B(  0-C ,  3-H ) :   0.9493
B(  1-C ,  4-C ) :   1.0529 B(  1-C ,  5-H ) :   0.9589 B(  4-C ,  6-C ) :   1.0606
B(  4-C ,  7-H ) :   0.9216 B(  4-C ,  8-H ) :   0.9378 B(  6-C ,  9-C ) :   1.0468
B(  6-C , 10-H ) :   0.9290 B(  6-C , 11-H ) :   0.9339 B(  9-C , 12-C ) :   2.0210
B(  9-C , 13-H ) :   0.9586 B( 12-C , 14-H ) :   0.9511 B( 12-C , 15-H ) :   0.9511

Dispersion correction           -0.020982022
FINAL SINGLE POINT ENERGY      -234.297248165644
Dispersion correction             ... done (  0.1 sec)

DIPOLE MOMENT
-------------

Method             : SCF
Type of density    : Electron Density
Multiplicity       :   1
Irrep              :   0
Energy             :  -234.2762661439031433 Eh
Basis              : AO
                                X                 Y                 Z
Electronic contribution:     -0.296656695       0.028644699      -0.485508709
Nuclear contribution   :      0.242689422      -0.186795179       0.501582605
                        -----------------------------------------
Total Dipole Moment    :     -0.053967273      -0.158150480       0.016073896
                        -----------------------------------------
Magnitude (a.u.)       :      0.167876178
Magnitude (Debye)      :      0.426707333

Rotational constants in cm-1:             0.233053             0.062693             0.054150
Rotational constants in MHz :          6986.758920          1879.494931          1623.384819

                             ****ORCA TERMINATED NORMALLY****
TOTAL RUN TIME: 0 days 0 hours 0 minutes 18 seconds 305 msec
