                         Program Version 6.1.0  -  RELEASE   -
|  1> ! B3LYP def2-SVP d3 EnGrad
|  2> %pal nprocs 6 end
|  3> *xyz 0 1
|  4> C   1.61703804234683 -0.79297512621846 0.11467089390483
|  5> O   1.21426840893225 0.44447077926568 -0.41470480318378
|  6> C   -1.72690216536361 0.94025949334155 0.14814260677492
|  7> O   -1.55231168917279 0.30092346278059 -0.86048193459161
|  8> H   2.50651520751999 -0.6253678568174 0.74359145235146
|  9> H   1.89848336533533 -1.52894385213138 -0.66599056494425
| 10> H   0.39200313636249 0.30122171236198 -0.91283217341996
| 11> H   -2.7534982728671 1.17194622467335 0.52300713788446
| 12> H   0.84359047319463 -1.26723101056251 0.75422162063253
| 13> H   -0.86806950628801 1.32454017330662 0.74558376459143
| 14> *
| 15>
| 16>                          ****END OF INPUT****

CARTESIAN COORDINATES (ANGSTROEM)
---------------------------------
  C      1.617038   -0.792975    0.114671
  O      1.214268    0.444471   -0.414705
  C     -1.726902    0.940259    0.148143
  O     -1.552312    0.300923   -0.860482
  H      2.506515   -0.625368    0.743591
  H      1.898483   -1.528944   -0.665991
  H      0.392003    0.301222   -0.912832
  H     -2.753498    1.171946    0.523007
  H      0.843590   -1.267231    0.754222
  H     -0.868070    1.324540    0.745584

 Total Charge           Charge          ....    0
 Multiplicity           Mult            ....    1
 Number of Electrons    NEL             ....   34
 Basis Dimension        Dim             ....   86

ORBITAL ENERGIES
----------------

  NO   OCC          E(Eh)            E(eV)
   0   2.0000     -19.170400      -521.6531
   1   2.0000     -19.107592      -519.9440
   2   2.0000     -10.299248      -280.2568
   3   2.0000     -10.217610      -278.0353
   4   2.0000      -1.067170       -29.0392
   5   2.0000      -0.985463       -26.8158
   6   2.0000      -0.657357       -17.8876
   7   2.0000      -0.635126       -17.2827
   8   2.0000      -0.517445       -14.0804
   9   2.0000      -0.485561       -13.2128
  10   2.0000      -0.463644       -12.6164
  11   2.0000      -0.424501       -11.5513
  12   2.0000      -0.418206       -11.3800
  13   2.0000      -0.409048       -11.1308
  14   2.0000      -0.320161        -8.7120
  15   2.0000      -0.283019        -7.7013
  16   2.0000      -0.255162        -6.9433
  17   0.0000      -0.059185        -1.6105
  18   0.0000       0.069123         1.8809
  19   0.0000       0.081579         2.2199
  20   0.0000       0.119881         3.2621
  21   0.0000       0.139031         3.7832

MULLIKEN ATOMIC CHARGES
-----------------------
   0 C :    0.159312
   1 O :   -0.348177
   2 C :    0.172702
   3 O :   -0.229108
   4 H :    0.012428
   5 H :   -0.000567
   6 H :    0.167096
   7 H :    0.037119
   8 H :   -0.015354
   9 H :    0.044550
Sum of atomic charges:   -0.0000000

LOEWDIN ATOMIC CHARGES
----------------------
   0 C :    0.058280
   1 O :   -0.159515
   2 C :    0.154829
   3 O :   -0.113674
   4 H :    0.014913
   5 H :    0.000711
   6 H :    0.049877
   7 H :    0.000621
   8 H :   -0.005066
   9 H :   -0.000977

  Mayer bond orders larger than 0.100000
B(  0-C ,  1-O ) :   1.0521 B(  0-C ,  4-H ) :   0.9815 B(  0-C ,  5-H ) :   0.9710
B(  0-C ,  8-H ) :   0.9626 B(  1-O ,  6-H ) :   0.9398 B(  2-C ,  3-O ) :   2.0575
B(  2-C ,  7-H ) :   0.9215 B(  2-C ,  9-H ) :   0.9142

Dispersion correction           -0.007566060
FINAL SINGLE POINT ENERGY      -229.941245945990
Dispersion correction             ... done (  0.0 sec)

DIPOLE MOMENT
-------------

Method             : SCF
Type of density    : Electron Density
Multiplicity       :   1
Irrep              :   0
Energy             :  -229.9336798862667592 Eh
Basis              : AO
                                X                 Y                 Z
Electronic contribution:     -2.951991169       1.770759712      -1.918559014
Nuclear contribution   :      2.317032458      -1.765427717       2.558369233
                        -----------------------------------------
Total Dipole Moment    :     -0.634958711       0.005331995       0.639810219
                        -----------------------------------------
Magnitude (a.u.)       :      0.901420053
Magnitude (Debye)      :      2.291227688

Rotational constants in cm-1:             0.612666             0.096183             0.095101
Rotational constants in MHz :         18367.270495          2883.506442          2851.045250

                             ****ORCA TERMINATED NORMALLY****
TOTAL RUN TIME: 0 days 0 hours 0 minutes 8 seconds 898 msec
