                         Program Version 6.1.0  -  RELEASE   -
|  1> ! B3LYP def2-SVP d3 EnGrad
|  2> %pal nprocs 6 end
|  3> *xyz 0 1
|  4> C   -1.10852706038576 1.58387567420203 0.84229730290449
|  5> C   -0.77942718671632 0.80775152805946 -0.19373980945325
|  6> C   0.56850215697617 0.19073470000761 -0.47456275609911
|  7> C   1.66660169924693 0.5855899201847 0.52426184236173
|  8> C   -0.50414544912155 -2.10402575866509 -0.2127186487013
|  9> C   0.5000542447977 -1.31747135326748 -0.60850369235217
| 10> H   -1.54882690615347 0.57383870187718 -0.94032539419664
| 11> H   -0.39313437227103 1.85105412825533 1.62487078632562
| 12> H   -2.1191729437234 1.98914851287025 0.94337858192793
| 13> H   -0.45315560126373 -3.18990335064499 -0.33193144179543
| 14> H   -1.40807310281791 -1.6946443104825 0.24817112163167
| 15> H   1.39238518196347 -1.77792303331917 -1.05241326737426
| 16> H   2.62867541314705 0.12860915542318 0.24438895166418
| 17> H   1.80492842361006 1.67765601953827 0.55449820750145
| 18> H   1.41634913378429 0.23753055832395 1.53886623311789
| 19> H   0.88231536892748 0.56998690763726 -1.46903601746278
| 20> *
| 21>
| 22>                          ****END OF INPUT****

CARTESIAN COORDINATES (ANGSTROEM)
---------------------------------
  C     -1.108527    1.583876    0.842297
  C     -0.779427    0.807752   -0.193740
  C      0.568502    0.190735   -0.474563
  C      1.666602    0.585590    0.524262
  C     -0.504145   -2.104026   -0.212719
  C      0.500054   -1.317471   -0.608504
  H     -1.548827    0.573839   -0.940325
  H     -0.393134    1.851054    1.624871
  H     -2.119173    1.989149    0.943379
  H     -0.453156   -3.189903   -0.331931
  H     -1.408073   -1.694644    0.248171
  H      1.392385   -1.777923   -1.052413
  H      2.628675    0.128609    0.244389
  H      1.804928    1.677656    0.554498
  H      1.416349    0.237531    1.538866
  H      0.882315    0.569987   -1.469036

 Total Charge           Charge          ....    0
 Multiplicity           Mult            ....    1
 Number of Electrons    NEL             ....   46
 Basis Dimension        Dim             ....  134

ORBITAL ENERGIES
----------------

  NO   OCC          E(Eh)            E(eV)
   0   2.0000     -10.196069      -277.4492
   1   2.0000     -10.186868      -277.1988
   2   2.0000     -10.185671      -277.1662
   3   2.0000     -10.179401      -276.9956
   4   2.0000     -10.177781      -276.9515
   5   2.0000     -10.176750      -276.9235
   6   2.0000      -0.813252       -22.1297
   7   2.0000      -0.740458       -20.1489
   8   2.0000      -0.709010       -19.2931
   9   2.0000      -0.631994       -17.1974
  10   2.0000      -0.567665       -15.4469
  11   2.0000      -0.511030       -13.9058
  12   2.0000      -0.475715       -12.9449
  13   2.0000      -0.464894       -12.6504
  14   2.0000      -0.435537       -11.8516
  15   2.0000      -0.408216       -11.1081
  16   2.0000      -0.395371       -10.7586
  17   2.0000      -0.377367       -10.2687
  18   2.0000      -0.351708        -9.5704
  19   2.0000      -0.340653        -9.2697
  20   2.0000      -0.326898        -8.8953
  21   2.0000      -0.265211        -7.2168
  22   2.0000      -0.252956        -6.8833
  23   0.0000       0.012371         0.3366
  24   0.0000       0.017251         0.4694
  25   0.0000       0.068380         1.8607
  26   0.0000       0.091602         2.4926
  27   0.0000       0.093042         2.5318

MULLIKEN ATOMIC CHARGES
-----------------------
   0 C :   -0.028022
   1 C :   -0.067606
   2 C :    0.055108
   3 C :    0.036806
   4 C :   -0.016454
   5 C :   -0.084744
   6 H :    0.000686
   7 H :    0.012637
   8 H :    0.015981
   9 H :    0.015652
  10 H :    0.019215
  11 H :   -0.004460
  12 H :    0.004096
  13 H :    0.017099
  14 H :    0.017444
  15 H :    0.006561
Sum of atomic charges:   -0.0000000

LOEWDIN ATOMIC CHARGES
----------------------
   0 C :   -0.066077
   1 C :   -0.016179
   2 C :   -0.038473
   3 C :   -0.041749
   4 C :   -0.063892
   5 C :   -0.019416
   6 H :    0.024817
   7 H :    0.019811
   8 H :    0.023732
   9 H :    0.023481
  10 H :    0.022038
  11 H :    0.021880
  12 H :    0.023720
  13 H :    0.023587
  14 H :    0.024282
  15 H :    0.038439

  Mayer bond orders larger than 0.100000
B(  0-C ,  1-C ) :   2.0116 B(  0-C ,  7-H ) :   0.9383 B(  0-C ,  8-H ) :   0.9468
B(  1-C ,  2-C ) :   1.0140 B(  1-C ,  6-H ) :   0.9557 B(  2-C ,  3-C ) :   1.0896
B(  2-C ,  5-C ) :   0.9946 B(  2-C , 15-H ) :   0.8855 B(  3-C , 12-H ) :   0.9599
B(  3-C , 13-H ) :   0.9566 B(  3-C , 14-H ) :   0.9591 B(  4-C ,  5-C ) :   2.0268
B(  4-C ,  9-H ) :   0.9474 B(  4-C , 10-H ) :   0.9343 B(  5-C , 11-H ) :   0.9576

Dispersion correction           -0.022529513
FINAL SINGLE POINT ENERGY      -234.297413047002
Dispersion correction             ... done (  0.0 sec)

DIPOLE MOMENT
-------------

Method             : SCF
Type of density    : Electron Density
Multiplicity       :   1
Irrep              :   0
Energy             :  -234.2748835340730409 Eh
Basis              : AO
                                X                 Y                 Z
Electronic contribution:     -1.205079442      -0.610521081      -1.363946460
Nuclear contribution   :      1.342011980       0.648508193       1.288418064
                        -----------------------------------------
Total Dipole Moment    :      0.136932538       0.037987113      -0.075528396
                        -----------------------------------------
Magnitude (a.u.)       :      0.160928802
Magnitude (Debye)      :      0.409048507

Rotational constants in cm-1:             0.159674             0.095540             0.068740
Rotational constants in MHz :          4786.900843          2864.215342          2060.763481

                             ****ORCA TERMINATED NORMALLY****
TOTAL RUN TIME: 0 days 0 hours 0 minutes 19 seconds 242 msec
