                         Program Version 6.1.0  -  RELEASE   -
|  1> ! B3LYP def2-SVP d3 EnGrad
|  2> %pal nprocs 6 end
|  3> *xyz 0 1
|  4> C   -3.14350666905978 0.74066866391809 0.61740299317823
|  5> C   -1.80424908535686 0.36763595526818 0.0083240643276
|  6> N   -1.13997266941017 -0.64961050962229 0.61565505137248
|  7> C   0.11413589491346 -1.2664359292224 0.16106330822645
|  8> C   1.36902502295611 -0.38576156542636 0.37330575706033
|  9> N   1.33792136514031 0.82523765657232 -0.23511728214317
| 10> C   2.43738164210179 1.76063998700905 -0.15336937569982
| 11> O   -1.372134071518 0.96445865871519 -0.97534828270624
| 12> C   0.02909640707168 -1.79195840651636 -1.27648341104069
| 13> O   2.31506149671263 -0.81789967731424 1.01567242960423
| 14> H   -3.12451943768941 1.80957300091246 0.87785267255864
| 15> H   -3.41277800202838 0.15210917139192 1.50636416020571
| 16> H   -3.92074932606669 0.60946211977062 -0.15120163318488
| 17> H   -1.54857576337934 -1.03449847731349 1.45731957007583
| 18> H   0.28788651877575 -2.11320306542899 0.83763636391935
| 19> H   0.47807031166568 1.08344330888521 -0.72607022247745
| 20> H   2.13945687134568 2.69377988382717 0.35577189993935
| 21> H   2.81486345965529 2.02258951874437 -1.1566289626692
| 22> H   3.24688429935843 1.28873379103831 0.41896735049073
| 23> H   0.97517998439394 -2.28885431135571 -1.53932227502826
| 24> H   -0.15483438740379 -0.97672763391781 -1.98807265442804
| 25> H   -0.78724484217831 -2.52606515993525 -1.3663135315812
| 26> *
| 27>
| 28>                          ****END OF INPUT****

CARTESIAN COORDINATES (ANGSTROEM)
---------------------------------
  C     -3.143507    0.740669    0.617403
  C     -1.804249    0.367636    0.008324
  N     -1.139973   -0.649611    0.615655
  C      0.114136   -1.266436    0.161063
  C      1.369025   -0.385762    0.373306
  N      1.337921    0.825238   -0.235117
  C      2.437382    1.760640   -0.153369
  O     -1.372134    0.964459   -0.975348
  C      0.029096   -1.791958   -1.276483
  O      2.315061   -0.817900    1.015672
  H     -3.124519    1.809573    0.877853
  H     -3.412778    0.152109    1.506364
  H     -3.920749    0.609462   -0.151202
  H     -1.548576   -1.034498    1.457320
  H      0.287887   -2.113203    0.837636
  H      0.478070    1.083443   -0.726070
  H      2.139457    2.693780    0.355772
  H      2.814863    2.022590   -1.156629
  H      3.246884    1.288734    0.418967
  H      0.975180   -2.288854   -1.539322
  H     -0.154834   -0.976728   -1.988073
  H     -0.787245   -2.526065   -1.366314

 Total Charge           Charge          ....    0
 Multiplicity           Mult            ....    1
 Number of Electrons    NEL             ....   78
 Basis Dimension        Dim             ....  200

ORBITAL ENERGIES
----------------

  NO   OCC          E(Eh)            E(eV)
   0   2.0000     -19.109023      -519.9830
   1   2.0000     -19.082284      -519.2553
   2   2.0000     -14.367033      -390.9468
   3   2.0000     -14.330009      -389.9394
   4   2.0000     -10.298676      -280.2412
   5   2.0000     -10.267647      -279.3969
   6   2.0000     -10.234550      -278.4963
   7   2.0000     -10.206386      -277.7299
   8   2.0000     -10.204483      -277.6781
   9   2.0000     -10.185127      -277.1514
  10   2.0000      -1.036166       -28.1955
  11   2.0000      -1.007931       -27.4272
  12   2.0000      -0.925820       -25.1928
  13   2.0000      -0.893244       -24.3064
  14   2.0000      -0.778013       -21.1708
  15   2.0000      -0.728311       -19.8183
  16   2.0000      -0.689320       -18.7574
  17   2.0000      -0.645648       -17.5690
  18   2.0000      -0.588240       -16.0068
  19   2.0000      -0.558634       -15.2012
  20   2.0000      -0.534060       -14.5325
  21   2.0000      -0.505980       -13.7684
  22   2.0000      -0.469523       -12.7764
  23   2.0000      -0.458915       -12.4877
  24   2.0000      -0.440627       -11.9901
  25   2.0000      -0.437810       -11.9134
  26   2.0000      -0.422213       -11.4890
  27   2.0000      -0.414228       -11.2717
  28   2.0000      -0.412002       -11.2111
  29   2.0000      -0.405028       -11.0214
  30   2.0000      -0.383718       -10.4415
  31   2.0000      -0.374786       -10.1984
  32   2.0000      -0.369158       -10.0453
  33   2.0000      -0.357819        -9.7367
  34   2.0000      -0.352355        -9.5881
  35   2.0000      -0.283146        -7.7048
  36   2.0000      -0.266496        -7.2517
  37   2.0000      -0.239265        -6.5107
  38   2.0000      -0.234466        -6.3801
  39   0.0000       0.006051         0.1646
  40   0.0000       0.030197         0.8217
  41   0.0000       0.038371         1.0441
  42   0.0000       0.075155         2.0451
  43   0.0000       0.081067         2.2059

MULLIKEN ATOMIC CHARGES
-----------------------
   0 C :    0.053959
   1 C :    0.052964
   2 N :   -0.145691
   3 C :    0.059477
   4 C :    0.064781
   5 N :   -0.187182
   6 C :    0.113177
   7 O :   -0.303770
   8 C :    0.046675
   9 O :   -0.262227
  10 H :    0.046762
  11 H :    0.002914
  12 H :    0.049465
  13 H :    0.123832
  14 H :    0.001422
  15 H :    0.135648
  16 H :    0.017224
  17 H :    0.018926
  18 H :    0.039540
  19 H :    0.025805
  20 H :    0.036835
  21 H :    0.009466
Sum of atomic charges:   -0.0000000

LOEWDIN ATOMIC CHARGES
----------------------
   0 C :   -0.070394
   1 C :    0.074744
   2 N :   -0.003679
   3 C :    0.011018
   4 C :    0.050914
   5 N :   -0.022454
   6 C :    0.025323
   7 O :   -0.236398
   8 C :   -0.048671
   9 O :   -0.233195
  10 H :    0.048309
  11 H :    0.023301
  12 H :    0.050213
  13 H :    0.081515
  14 H :    0.033873
  15 H :    0.060568
  16 H :    0.018370
  17 H :    0.019712
  18 H :    0.031044
  19 H :    0.034194
  20 H :    0.028377
  21 H :    0.023315

  Mayer bond orders larger than 0.100000
B(  0-C ,  1-C ) :   1.0353 B(  0-C , 10-H ) :   0.9485 B(  0-C , 11-H ) :   0.9552
B(  0-C , 12-H ) :   0.9485 B(  1-C ,  2-N ) :   1.2396 B(  1-C ,  7-O ) :   1.8894
B(  2-N ,  3-C ) :   0.9373 B(  2-N , 13-H ) :   0.9303 B(  3-C ,  4-C ) :   0.9213
B(  3-C ,  8-C ) :   1.0753 B(  3-C , 14-H ) :   0.9099 B(  4-C ,  5-N ) :   1.2804
B(  4-C ,  9-O ) :   2.0528 B(  5-N ,  6-C ) :   0.9970 B(  5-N , 15-H ) :   0.8738
B(  6-C , 16-H ) :   0.9749 B(  6-C , 17-H ) :   0.9742 B(  6-C , 18-H ) :   0.9601
B(  7-O , 15-H ) :   0.1112 B(  8-C , 19-H ) :   0.9598 B(  8-C , 20-H ) :   0.9577
B(  8-C , 21-H ) :   0.9577

Dispersion correction           -0.034136111
FINAL SINGLE POINT ENERGY      -495.241135230693
Dispersion correction             ... done (  0.0 sec)

DIPOLE MOMENT
-------------

Method             : SCF
Type of density    : Electron Density
Multiplicity       :   1
Irrep              :   0
Energy             :  -495.2069991198512184 Eh
Basis              : AO
                                X                 Y                 Z
Electronic contribution:      1.646482952      -0.848183311       1.769873371
Nuclear contribution   :     -3.028009868       0.786930703      -1.477841535
                        -----------------------------------------
Total Dipole Moment    :     -1.381526916      -0.061252607       0.292031835
                        -----------------------------------------
Magnitude (a.u.)       :      1.413382855
Magnitude (Debye)      :      3.592533713

Rotational constants in cm-1:             0.064289             0.030305             0.025601
Rotational constants in MHz :          1927.332045           908.534741           767.497099

                             ****ORCA TERMINATED NORMALLY****
TOTAL RUN TIME: 0 days 0 hours 0 minutes 36 seconds 872 msec
