                         Program Version 6.1.0  -  RELEASE   -
|  1> ! B3LYP def2-SVP d3 EnGrad
|  2> %pal nprocs 6 end
|  3> *xyz 0 1
|  4> C   -2.47411477520192 0.03353963583962 0.485472485541
|  5> C   -2.30281105401768 -1.16177663876247 -0.08055889662688
|  6> C   0.86050829530945 0.99199422693362 -0.57061451454352
|  7> C   1.26889617997327 1.89729460681497 0.33175812027743
|  8> C   1.68969030533062 -1.16670130735035 0.3933012368124
|  9> C   1.29675320867999 -0.4100489157364 -0.64278421444466
| 10> H   -3.15065358441852 -1.76113715351964 -0.42855207990097
| 11> H   -1.62254884925454 0.6296308489858 0.8272302285509
| 12> H   -3.47026429280055 0.46671765623253 0.62603708727586
| 13> H   2.01640807631053 -2.19978553358403 0.24969519651354
| 14> H   1.68250301011827 -0.78451003187354 1.41880650797826
| 15> H   -1.30398833309828 -1.58803096769013 -0.21453281129087
| 16> H   1.26819731617299 -0.86351018808155 -1.64138894419866
| 17> H   0.8771350525198 2.91783980220217 0.32714983801748
| 18> H   2.01489674521363 1.65302154315669 1.09446618599667
| 19> H   0.14609569916292 1.30385541643269 -1.34189742595797
| 20> *
| 21>
| 22>                          ****END OF INPUT****

CARTESIAN COORDINATES (ANGSTROEM)
---------------------------------
  C     -2.474115    0.033540    0.485472
  C     -2.302811   -1.161777   -0.080559
  C      0.860508    0.991994   -0.570615
  C      1.268896    1.897295    0.331758
  C      1.689690   -1.166701    0.393301
  C      1.296753   -0.410049   -0.642784
  H     -3.150654   -1.761137   -0.428552
  H     -1.622549    0.629631    0.827230
  H     -3.470264    0.466718    0.626037
  H      2.016408   -2.199786    0.249695
  H      1.682503   -0.784510    1.418807
  H     -1.303988   -1.588031   -0.214533
  H      1.268197   -0.863510   -1.641389
  H      0.877135    2.917840    0.327150
  H      2.014897    1.653022    1.094466
  H      0.146096    1.303855   -1.341897

 Total Charge           Charge          ....    0
 Multiplicity           Mult            ....    1
 Number of Electrons    NEL             ....   46
 Basis Dimension        Dim             ....  134

ORBITAL ENERGIES
----------------

  NO   OCC          E(Eh)            E(eV)
   0   2.0000     -10.195016      -277.4205
   1   2.0000     -10.194118      -277.3961
   2   2.0000     -10.188090      -277.2320
   3   2.0000     -10.187472      -277.2152
   4   2.0000     -10.179481      -276.9978
   5   2.0000     -10.178765      -276.9783
   6   2.0000      -0.796236       -21.6667
   7   2.0000      -0.741043       -20.1648
   8   2.0000      -0.720087       -19.5946
   9   2.0000      -0.612278       -16.6609
  10   2.0000      -0.561453       -15.2779
  11   2.0000      -0.523235       -14.2379
  12   2.0000      -0.488679       -13.2976
  13   2.0000      -0.457470       -12.4484
  14   2.0000      -0.438565       -11.9340
  15   2.0000      -0.423340       -11.5197
  16   2.0000      -0.410259       -11.1637
  17   2.0000      -0.368078       -10.0159
  18   2.0000      -0.349501        -9.5104
  19   2.0000      -0.345291        -9.3959
  20   2.0000      -0.314494        -8.5578
  21   2.0000      -0.266142        -7.2421
  22   2.0000      -0.239174        -6.5083
  23   0.0000      -0.035357        -0.9621
  24   0.0000       0.013965         0.3800
  25   0.0000       0.061316         1.6685
  26   0.0000       0.074964         2.0399
  27   0.0000       0.086233         2.3465

MULLIKEN ATOMIC CHARGES
-----------------------
   0 C :   -0.064181
   1 C :   -0.065063
   2 C :   -0.016464
   3 C :   -0.026933
   4 C :   -0.021678
   5 C :   -0.019359
   6 H :    0.022342
   7 H :    0.034802
   8 H :    0.022445
   9 H :    0.024518
  10 H :    0.021877
  11 H :    0.030963
  12 H :    0.003668
  13 H :    0.024837
  14 H :    0.020668
  15 H :    0.007558
Sum of atomic charges:   -0.0000000

LOEWDIN ATOMIC CHARGES
----------------------
   0 C :   -0.050157
   1 C :   -0.051226
   2 C :   -0.029552
   3 C :   -0.042712
   4 C :   -0.040142
   5 C :   -0.031145
   6 H :    0.021343
   7 H :    0.023669
   8 H :    0.021603
   9 H :    0.025811
  10 H :    0.023072
  11 H :    0.022132
  12 H :    0.028956
  13 H :    0.025813
  14 H :    0.022525
  15 H :    0.030010

  Mayer bond orders larger than 0.100000
B(  0-C ,  1-C ) :   2.0822 B(  0-C ,  7-H ) :   0.9536 B(  0-C ,  8-H ) :   0.9609
B(  1-C ,  6-H ) :   0.9607 B(  1-C , 11-H ) :   0.9528 B(  2-C ,  3-C ) :   1.9491
B(  2-C ,  5-C ) :   1.0855 B(  2-C , 15-H ) :   0.9524 B(  3-C , 13-H ) :   0.9488
B(  3-C , 14-H ) :   0.9527 B(  4-C ,  5-C ) :   1.9459 B(  4-C ,  9-H ) :   0.9493
B(  4-C , 10-H ) :   0.9525 B(  5-C , 12-H ) :   0.9537

Dispersion correction           -0.019078186
FINAL SINGLE POINT ENERGY      -234.259034125240
Dispersion correction             ... done (  0.1 sec)

DIPOLE MOMENT
-------------

Method             : SCF
Type of density    : Electron Density
Multiplicity       :   1
Irrep              :   0
Energy             :  -234.2399559389789658 Eh
Basis              : AO
                                X                 Y                 Z
Electronic contribution:      1.815381156       0.456844454      -0.917066925
Nuclear contribution   :     -1.734249093      -0.438752122       0.869192093
                        -----------------------------------------
Total Dipole Moment    :      0.081132063       0.018092332      -0.047874832
                        -----------------------------------------
Magnitude (a.u.)       :      0.095925720
Magnitude (Debye)      :      0.243823803

Rotational constants in cm-1:             0.133570             0.056925             0.044818
Rotational constants in MHz :          4004.322694          1706.564566          1343.606559

                             ****ORCA TERMINATED NORMALLY****
TOTAL RUN TIME: 0 days 0 hours 0 minutes 16 seconds 894 msec
