                         Program Version 6.1.0  -  RELEASE   -
|  1> ! B3LYP def2-SVP d3 EnGrad
|  2> %pal nprocs 6 end
|  3> *xyz 0 1
|  4> C   -1.61400932894556 1.7457090802821 -0.5236559085368
|  5> C   -1.47009372843696 0.83955848594988 0.44913867069804
|  6> C   -0.31272204697589 -0.07247881332971 0.64900499203119
|  7> C   -0.20406397508041 -1.36745087165728 -0.14569730287964
|  8> C   0.78339602699766 -0.25269658666797 -0.3684170571638
|  9> C   2.22177227759107 -0.39066714618949 0.07668663582279
| 10> H   -2.28059846063746 0.72274517727011 1.1809190411681
| 11> H   -0.83644789550008 1.91830128252419 -1.27429058551412
| 12> H   -2.51984174214396 2.35278151745292 -0.60368083849815
| 13> H   0.65407449133282 0.3001930937744 -1.30501815686032
| 14> H   2.6839081916697 0.59542578838394 0.25016701711776
| 15> H   2.29318202214933 -0.9626400894819 1.01655238838008
| 16> H   2.82655618799671 -0.91800880126694 -0.68009405110071
| 17> H   0.13505850652259 -2.2651512548173 0.3811617680106
| 18> H   -0.96262400896929 -1.54524959635692 -0.91332378915934
| 19> H   0.00011448242974 -0.16349626587004 1.69687517648431
| 20> *
| 21>
| 22>                          ****END OF INPUT****

CARTESIAN COORDINATES (ANGSTROEM)
---------------------------------
  C     -1.614009    1.745709   -0.523656
  C     -1.470094    0.839558    0.449139
  C     -0.312722   -0.072479    0.649005
  C     -0.204064   -1.367451   -0.145697
  C      0.783396   -0.252697   -0.368417
  C      2.221772   -0.390667    0.076687
  H     -2.280598    0.722745    1.180919
  H     -0.836448    1.918301   -1.274291
  H     -2.519842    2.352782   -0.603681
  H      0.654074    0.300193   -1.305018
  H      2.683908    0.595426    0.250167
  H      2.293182   -0.962640    1.016552
  H      2.826556   -0.918009   -0.680094
  H      0.135059   -2.265151    0.381162
  H     -0.962624   -1.545250   -0.913324
  H      0.000114   -0.163496    1.696875

 Total Charge           Charge          ....    0
 Multiplicity           Mult            ....    1
 Number of Electrons    NEL             ....   46
 Basis Dimension        Dim             ....  134

ORBITAL ENERGIES
----------------

  NO   OCC          E(Eh)            E(eV)
   0   2.0000     -10.189984      -277.2836
   1   2.0000     -10.189447      -277.2690
   2   2.0000     -10.186234      -277.1815
   3   2.0000     -10.184708      -277.1400
   4   2.0000     -10.179850      -277.0078
   5   2.0000     -10.174851      -276.8718
   6   2.0000      -0.857309       -23.3286
   7   2.0000      -0.749269       -20.3886
   8   2.0000      -0.697324       -18.9751
   9   2.0000      -0.612805       -16.6753
  10   2.0000      -0.568383       -15.4665
  11   2.0000      -0.529033       -14.3957
  12   2.0000      -0.483489       -13.1564
  13   2.0000      -0.458354       -12.4725
  14   2.0000      -0.434275       -11.8172
  15   2.0000      -0.408893       -11.1265
  16   2.0000      -0.389159       -10.5896
  17   2.0000      -0.373839       -10.1727
  18   2.0000      -0.351623        -9.5681
  19   2.0000      -0.344516        -9.3748
  20   2.0000      -0.311173        -8.4674
  21   2.0000      -0.279526        -7.6063
  22   2.0000      -0.242572        -6.6007
  23   0.0000       0.014150         0.3850
  24   0.0000       0.069972         1.9040
  25   0.0000       0.072757         1.9798
  26   0.0000       0.091995         2.5033
  27   0.0000       0.109716         2.9855

MULLIKEN ATOMIC CHARGES
-----------------------
   0 C :   -0.037870
   1 C :    0.001079
   2 C :   -0.046375
   3 C :    0.024190
   4 C :   -0.137755
   5 C :    0.092515
   6 H :   -0.005635
   7 H :    0.009186
   8 H :    0.016861
   9 H :    0.013530
  10 H :    0.014466
  11 H :   -0.004424
  12 H :    0.011934
  13 H :    0.015833
  14 H :    0.022206
  15 H :    0.010258
Sum of atomic charges:    0.0000000

LOEWDIN ATOMIC CHARGES
----------------------
   0 C :   -0.069471
   1 C :   -0.017706
   2 C :   -0.041200
   3 C :   -0.027147
   4 C :   -0.034534
   5 C :   -0.043833
   6 H :    0.025418
   7 H :    0.017833
   8 H :    0.022667
   9 H :    0.023133
  10 H :    0.025825
  11 H :    0.021862
  12 H :    0.024766
  13 H :    0.021020
  14 H :    0.024427
  15 H :    0.026939

  Mayer bond orders larger than 0.100000
B(  0-C ,  1-C ) :   2.0058 B(  0-C ,  7-H ) :   0.9425 B(  0-C ,  8-H ) :   0.9483
B(  1-C ,  2-C ) :   1.0501 B(  1-C ,  6-H ) :   0.9599 B(  2-C ,  3-C ) :   0.9676
B(  2-C ,  4-C ) :   0.9456 B(  2-C , 15-H ) :   0.9373 B(  3-C ,  4-C ) :   1.0073
B(  3-C , 13-H ) :   0.9473 B(  3-C , 14-H ) :   0.9491 B(  4-C ,  5-C ) :   1.0897
B(  4-C ,  9-H ) :   0.9421 B(  5-C , 10-H ) :   0.9655 B(  5-C , 11-H ) :   0.9552
B(  5-C , 12-H ) :   0.9630

Dispersion correction           -0.020971411
FINAL SINGLE POINT ENERGY      -234.292491331304
Dispersion correction             ... done (  0.1 sec)

DIPOLE MOMENT
-------------

Method             : SCF
Type of density    : Electron Density
Multiplicity       :   1
Irrep              :   0
Energy             :  -234.2715199206629393 Eh
Basis              : AO
                                X                 Y                 Z
Electronic contribution:     -2.335933642       0.545850433       0.437740956
Nuclear contribution   :      2.457845796      -0.659861370      -0.394379172
                        -----------------------------------------
Total Dipole Moment    :      0.121912154      -0.114010937       0.043361784
                        -----------------------------------------
Magnitude (a.u.)       :      0.172456694
Magnitude (Debye)      :      0.438350080

Rotational constants in cm-1:             0.238458             0.075502             0.067261
Rotational constants in MHz :          7148.792093          2263.485391          2016.421157

                             ****ORCA TERMINATED NORMALLY****
TOTAL RUN TIME: 0 days 0 hours 0 minutes 18 seconds 696 msec
