                         Program Version 6.1.0  -  RELEASE   -
|  1> ! B3LYP def2-SVP d3 EnGrad
|  2> %pal nprocs 6 end
|  3> *xyz 0 1
|  4> N   1.73557943334292 -0.26035031913012 0.36716252620934
|  5> B   2.04875733107334 0.67409407262971 -0.60856673718848
|  6> N   -1.43806244614094 0.38285205378047 0.31853881360167
|  7> B   -2.10813295519671 -0.83408322791574 0.21682760651224
|  8> H   -1.51554057073625 0.99566139172591 1.12355919712381
|  9> H   3.19500750407655 0.82673769342308 -0.9562777473932
| 10> H   1.1570608243274 1.33168949590766 -1.10044244237736
| 11> H   -2.7758848793019 -1.21797008942457 1.14744016812403
| 12> H   2.42881056459904 -0.84665129313481 0.81822360743015
| 13> H   -0.886981531229 0.78343194908755 -0.43554553569293
| 14> H   -1.991865515574 -1.4818443591471 -0.79525868174026
| 15> H   0.78387724075956 -0.42075936780203 0.68550722539099
| 16> *
| 17>
| 18>                          ****END OF INPUT****

CARTESIAN COORDINATES (ANGSTROEM)
---------------------------------
  N      1.735579   -0.260350    0.367163
  B      2.048757    0.674094   -0.608567
  N     -1.438062    0.382852    0.318539
  B     -2.108133   -0.834083    0.216828
  H     -1.515541    0.995661    1.123559
  H      3.195008    0.826738   -0.956278
  H      1.157061    1.331689   -1.100442
  H     -2.775885   -1.217970    1.147440
  H      2.428811   -0.846651    0.818224
  H     -0.886982    0.783432   -0.435546
  H     -1.991866   -1.481844   -0.795259
  H      0.783877   -0.420759    0.685507

 Total Charge           Charge          ....    0
 Multiplicity           Mult            ....    1
 Number of Electrons    NEL             ....   32
 Basis Dimension        Dim             ....   96

ORBITAL ENERGIES
----------------

  NO   OCC          E(Eh)            E(eV)
   0   2.0000     -14.338172      -390.1615
   1   2.0000     -14.329441      -389.9239
   2   2.0000      -6.749352      -183.6592
   3   2.0000      -6.745196      -183.5461
   4   2.0000      -0.864490       -23.5240
   5   2.0000      -0.853702       -23.2304
   6   2.0000      -0.527677       -14.3588
   7   2.0000      -0.521440       -14.1891
   8   2.0000      -0.516315       -14.0496
   9   2.0000      -0.506170       -13.7736
  10   2.0000      -0.393647       -10.7117
  11   2.0000      -0.389311       -10.5937
  12   2.0000      -0.321723        -8.7545
  13   2.0000      -0.316061        -8.6005
  14   2.0000      -0.309042        -8.4095
  15   2.0000      -0.301726        -8.2104
  16   0.0000       0.003380         0.0920
  17   0.0000       0.010853         0.2953
  18   0.0000       0.046948         1.2775
  19   0.0000       0.074434         2.0255
  20   0.0000       0.102967         2.8019

MULLIKEN ATOMIC CHARGES
-----------------------
   0 N :   -0.059944
   1 B :   -0.078954
   2 N :   -0.080437
   3 B :   -0.056862
   4 H :    0.122544
   5 H :   -0.043551
   6 H :   -0.067052
   7 H :   -0.045922
   8 H :    0.120330
   9 H :    0.131174
  10 H :   -0.042643
  11 H :    0.101316
Sum of atomic charges:   -0.0000000

LOEWDIN ATOMIC CHARGES
----------------------
   0 N :    0.061861
   1 B :   -0.136549
   2 N :    0.060838
   3 B :   -0.119784
   4 H :    0.083189
   5 H :   -0.044589
   6 H :   -0.055199
   7 H :   -0.045280
   8 H :    0.082923
   9 H :    0.085651
  10 H :   -0.042902
  11 H :    0.069842

  Mayer bond orders larger than 0.100000
B(  0-N ,  1-B ) :   1.6313 B(  0-N ,  8-H ) :   0.9576 B(  0-N , 11-H ) :   0.9350
B(  1-B ,  5-H ) :   0.9671 B(  1-B ,  6-H ) :   0.9483 B(  2-N ,  3-B ) :   1.5568
B(  2-N ,  4-H ) :   0.9585 B(  2-N ,  9-H ) :   0.9439 B(  3-B ,  7-H ) :   0.9700
B(  3-B , 10-H ) :   0.9711

Dispersion correction           -0.010102490
FINAL SINGLE POINT ENERGY      -163.864570913487
Dispersion correction             ... done (  0.1 sec)

DIPOLE MOMENT
-------------

Method             : SCF
Type of density    : Electron Density
Multiplicity       :   1
Irrep              :   0
Energy             :  -163.8544684234648514 Eh
Basis              : AO
                                X                 Y                 Z
Electronic contribution:      0.101030567       0.054444450       0.507168855
Nuclear contribution   :      0.008354602       0.098287224       0.147071053
                        -----------------------------------------
Total Dipole Moment    :      0.109385169       0.152731674       0.654239907
                        -----------------------------------------
Magnitude (a.u.)       :      0.680677557
Magnitude (Debye)      :      1.730144852

Rotational constants in cm-1:             0.531342             0.079339             0.074347
Rotational constants in MHz :         15929.221332          2378.523050          2228.865650

                             ****ORCA TERMINATED NORMALLY****
TOTAL RUN TIME: 0 days 0 hours 0 minutes 9 seconds 649 msec
