                         Program Version 6.1.0  -  RELEASE   -
|  1> ! B3LYP def2-SVP d3 EnGrad
|  2> %pal nprocs 6 end
|  3> *xyz 0 1
|  4> C   0.41993683686918 -0.53992718589538 1.09219130484996
|  5> C   -0.20616257275787 -0.43917309542738 -0.27601565761013
|  6> C   -1.47315852613764 0.29470530887547 -0.52879752836553
|  7> C   -2.3079198512709 0.78360831236993 0.39440646886969
|  8> C   2.38796132553654 -0.08666868083234 -0.58666916838499
|  9> C   1.07574831868996 0.31720147689479 0.0427687617271
| 10> H   -0.05829247322011 -1.30661086779568 -0.93154388097678
| 11> H   -0.07573553383672 -0.04453362600313 1.93082855604113
| 12> H   0.9035219480821 -1.48558115111641 1.35582924931076
| 13> H   2.5081014292059 0.35826452534247 -1.58872687181531
| 14> H   3.24305258285779 0.23872002849541 0.02984255834848
| 15> H   2.45461947278092 -1.18170795819648 -0.69598168666033
| 16> H   0.93803411591089 1.39691261687478 0.17394833375639
| 17> H   -3.20477916203111 1.34075680269597 0.11059658385115
| 18> H   -2.13143641181762 0.64365917897118 1.46525679565125
| 19> H   -1.71199949886132 0.45201231474676 -1.58901081859286
| 20> *
| 21>
| 22>                          ****END OF INPUT****

CARTESIAN COORDINATES (ANGSTROEM)
---------------------------------
  C      0.419937   -0.539927    1.092191
  C     -0.206163   -0.439173   -0.276016
  C     -1.473159    0.294705   -0.528798
  C     -2.307920    0.783608    0.394406
  C      2.387961   -0.086669   -0.586669
  C      1.075748    0.317201    0.042769
  H     -0.058292   -1.306611   -0.931544
  H     -0.075736   -0.044534    1.930829
  H      0.903522   -1.485581    1.355829
  H      2.508101    0.358265   -1.588727
  H      3.243053    0.238720    0.029843
  H      2.454619   -1.181708   -0.695982
  H      0.938034    1.396913    0.173948
  H     -3.204779    1.340757    0.110597
  H     -2.131436    0.643659    1.465257
  H     -1.711999    0.452012   -1.589011

 Total Charge           Charge          ....    0
 Multiplicity           Mult            ....    1
 Number of Electrons    NEL             ....   46
 Basis Dimension        Dim             ....  134

ORBITAL ENERGIES
----------------

  NO   OCC          E(Eh)            E(eV)
   0   2.0000     -10.191314      -277.3198
   1   2.0000     -10.189816      -277.2790
   2   2.0000     -10.185693      -277.1668
   3   2.0000     -10.183008      -277.0937
   4   2.0000     -10.180411      -277.0231
   5   2.0000     -10.174211      -276.8544
   6   2.0000      -0.857342       -23.3295
   7   2.0000      -0.749400       -20.3922
   8   2.0000      -0.697073       -18.9683
   9   2.0000      -0.616817       -16.7845
  10   2.0000      -0.562294       -15.3008
  11   2.0000      -0.529011       -14.3951
  12   2.0000      -0.489394       -13.3171
  13   2.0000      -0.457840       -12.4585
  14   2.0000      -0.428405       -11.6575
  15   2.0000      -0.407171       -11.0797
  16   2.0000      -0.397847       -10.8260
  17   2.0000      -0.369753       -10.0615
  18   2.0000      -0.355303        -9.6683
  19   2.0000      -0.343284        -9.3412
  20   2.0000      -0.305135        -8.3031
  21   2.0000      -0.286609        -7.7990
  22   2.0000      -0.240324        -6.5396
  23   0.0000       0.014909         0.4057
  24   0.0000       0.067418         1.8345
  25   0.0000       0.077531         2.1097
  26   0.0000       0.093593         2.5468
  27   0.0000       0.097516         2.6536

MULLIKEN ATOMIC CHARGES
-----------------------
   0 C :    0.022275
   1 C :   -0.048126
   2 C :   -0.003104
   3 C :   -0.037635
   4 C :    0.092611
   5 C :   -0.126637
   6 H :    0.007933
   7 H :    0.020525
   8 H :    0.013794
   9 H :    0.013349
  10 H :    0.013784
  11 H :   -0.003332
  12 H :    0.015278
  13 H :    0.016206
  14 H :    0.008773
  15 H :   -0.005695
Sum of atomic charges:    0.0000000

LOEWDIN ATOMIC CHARGES
----------------------
   0 C :   -0.033729
   1 C :   -0.040676
   2 C :   -0.018750
   3 C :   -0.069864
   4 C :   -0.046463
   5 C :   -0.027117
   6 H :    0.026412
   7 H :    0.023428
   8 H :    0.023516
   9 H :    0.025206
  10 H :    0.025889
  11 H :    0.022321
  12 H :    0.023972
  13 H :    0.022468
  14 H :    0.018026
  15 H :    0.025362

  Mayer bond orders larger than 0.100000
B(  0-C ,  1-C ) :   0.9985 B(  0-C ,  5-C ) :   1.0072 B(  0-C ,  7-H ) :   0.9406
B(  0-C ,  8-H ) :   0.9408 B(  1-C ,  2-C ) :   1.0504 B(  1-C ,  5-C ) :   0.9273
B(  1-C ,  6-H ) :   0.9346 B(  2-C ,  3-C ) :   2.0029 B(  2-C , 15-H ) :   0.9617
B(  3-C , 13-H ) :   0.9485 B(  3-C , 14-H ) :   0.9429 B(  4-C ,  5-C ) :   1.0864
B(  4-C ,  9-H ) :   0.9652 B(  4-C , 10-H ) :   0.9619 B(  4-C , 11-H ) :   0.9548
B(  5-C , 12-H ) :   0.9476

Dispersion correction           -0.020933015
FINAL SINGLE POINT ENERGY      -234.292947604174
Dispersion correction             ... done (  0.0 sec)

DIPOLE MOMENT
-------------

Method             : SCF
Type of density    : Electron Density
Multiplicity       :   1
Irrep              :   0
Energy             :  -234.2720145895247299 Eh
Basis              : AO
                                X                 Y                 Z
Electronic contribution:     -2.287944451       0.086292336      -0.094223281
Nuclear contribution   :      2.500228308      -0.113322261       0.025705510
                        -----------------------------------------
Total Dipole Moment    :      0.212283857      -0.027029925      -0.068517771
                        -----------------------------------------
Magnitude (a.u.)       :      0.224699216
Magnitude (Debye)      :      0.571140019

Rotational constants in cm-1:             0.297603             0.069513             0.063772
Rotational constants in MHz :          8921.925659          2083.953433          1911.826291

                             ****ORCA TERMINATED NORMALLY****
TOTAL RUN TIME: 0 days 0 hours 0 minutes 18 seconds 814 msec
