                         Program Version 6.1.0  -  RELEASE   -
|  1> ! B3LYP def2-SVP d3 EnGrad
|  2> %pal nprocs 6 end
|  3> *xyz 0 1
|  4> C   -0.81698694614276 1.79597425743271 -0.43516025847814
|  5> C   0.34129241602093 1.16972672865242 0.29349308105281
|  6> C   0.96864854689842 0.0190284451631 -0.0297954189186
|  7> C   0.61888374182384 -0.90419044706719 -1.15653727138832
|  8> O   -2.0741510320476 -0.98200741593028 0.62901094101672
|  9> H   -1.41330541991868 1.04912908271493 -0.97798111982573
| 10> H   -0.488201966456 2.56693586662226 -1.15622302926934
| 11> H   -1.49510742141465 2.30108369926399 0.2734925619153
| 12> H   -0.12969969418156 -0.46973677146297 -1.82835069840632
| 13> H   0.22058357978036 -1.85257468951071 -0.76176475271809
| 14> H   1.52950174756961 -1.13652203099013 -1.73143660178092
| 15> H   -2.77852124716762 -0.3408999061177 0.79071950488564
| 16> H   0.74916477434915 1.73615435632071 1.14252042804691
| 17> H   -1.27319639955988 -0.50088436780415 0.89240058858074
| 18> O   2.03394044091202 -0.46034355563526 0.6737705579808
| 19> H   2.23710187953438 0.15058974834825 1.39605148730654
| 20> *
| 21>
| 22>                          ****END OF INPUT****

CARTESIAN COORDINATES (ANGSTROEM)
---------------------------------
  C     -0.816987    1.795974   -0.435160
  C      0.341292    1.169727    0.293493
  C      0.968649    0.019028   -0.029795
  C      0.618884   -0.904190   -1.156537
  O     -2.074151   -0.982007    0.629011
  H     -1.413305    1.049129   -0.977981
  H     -0.488202    2.566936   -1.156223
  H     -1.495107    2.301084    0.273493
  H     -0.129700   -0.469737   -1.828351
  H      0.220584   -1.852575   -0.761765
  H      1.529502   -1.136522   -1.731437
  H     -2.778521   -0.340900    0.790720
  H      0.749165    1.736154    1.142520
  H     -1.273196   -0.500884    0.892401
  O      2.033940   -0.460344    0.673771
  H      2.237102    0.150590    1.396051

 Total Charge           Charge          ....    0
 Multiplicity           Mult            ....    1
 Number of Electrons    NEL             ....   50
 Basis Dimension        Dim             ....  134

ORBITAL ENERGIES
----------------

  NO   OCC          E(Eh)            E(eV)
   0   2.0000     -19.157026      -521.2892
   1   2.0000     -19.110490      -520.0229
   2   2.0000     -10.243992      -278.7532
   3   2.0000     -10.185501      -277.1616
   4   2.0000     -10.180821      -277.0342
   5   2.0000     -10.175546      -276.8907
   6   2.0000      -1.043347       -28.3909
   7   2.0000      -0.969266       -26.3751
   8   2.0000      -0.781387       -21.2626
   9   2.0000      -0.718962       -19.5640
  10   2.0000      -0.647467       -17.6185
  11   2.0000      -0.579375       -15.7656
  12   2.0000      -0.503827       -13.7098
  13   2.0000      -0.493775       -13.4363
  14   2.0000      -0.444629       -12.0990
  15   2.0000      -0.432649       -11.7730
  16   2.0000      -0.405954       -11.0466
  17   2.0000      -0.401387       -10.9223
  18   2.0000      -0.383209       -10.4276
  19   2.0000      -0.361553        -9.8384
  20   2.0000      -0.360841        -9.8190
  21   2.0000      -0.354650        -9.6505
  22   2.0000      -0.350344        -9.5333
  23   2.0000      -0.283433        -7.7126
  24   2.0000      -0.220038        -5.9875
  25   0.0000       0.029078         0.7913
  26   0.0000       0.044434         1.2091
  27   0.0000       0.056496         1.5373
  28   0.0000       0.095221         2.5911
  29   0.0000       0.099406         2.7050

MULLIKEN ATOMIC CHARGES
-----------------------
   0 C :    0.054236
   1 C :   -0.201546
   2 C :   -0.013724
   3 C :    0.096586
   4 O :   -0.291936
   5 H :    0.015057
   6 H :    0.023695
   7 H :    0.003006
   8 H :    0.015046
   9 H :    0.044748
  10 H :    0.021981
  11 H :    0.148911
  12 H :   -0.027942
  13 H :    0.151039
  14 O :   -0.207797
  15 H :    0.168641
Sum of atomic charges:    0.0000000

LOEWDIN ATOMIC CHARGES
----------------------
   0 C :   -0.060861
   1 C :   -0.153228
   2 C :    0.040991
   3 C :   -0.051505
   4 O :   -0.141856
   5 H :    0.022071
   6 H :    0.029023
   7 H :    0.023847
   8 H :    0.033023
   9 H :    0.043633
  10 H :    0.036717
  11 H :    0.073992
  12 H :    0.014004
  13 H :    0.062590
  14 O :   -0.060632
  15 H :    0.088192

  Mayer bond orders larger than 0.100000
B(  0-C ,  1-C ) :   1.0651 B(  0-C ,  5-H ) :   0.9546 B(  0-C ,  6-H ) :   0.9529
B(  0-C ,  7-H ) :   0.9539 B(  1-C ,  2-C ) :   1.7698 B(  1-C , 12-H ) :   0.9389
B(  2-C ,  3-C ) :   1.0986 B(  2-C , 14-O ) :   1.1713 B(  3-C ,  8-H ) :   0.9526
B(  3-C ,  9-H ) :   0.9407 B(  3-C , 10-H ) :   0.9394 B(  4-O , 11-H ) :   1.0018
B(  4-O , 13-H ) :   0.9798 B( 14-O , 15-H ) :   0.9647

Dispersion correction           -0.019461858
FINAL SINGLE POINT ENERGY      -308.479798275404
Dispersion correction             ... done (  0.0 sec)

DIPOLE MOMENT
-------------

Method             : SCF
Type of density    : Electron Density
Multiplicity       :   1
Irrep              :   0
Energy             :  -308.4603364176799118 Eh
Basis              : AO
                                X                 Y                 Z
Electronic contribution:      3.782033155      -1.784366605       2.423676388
Nuclear contribution   :     -3.694855548       2.696797290      -2.124644920
                        -----------------------------------------
Total Dipole Moment    :      0.087177607       0.912430685       0.299031467
                        -----------------------------------------
Magnitude (a.u.)       :      0.964131479
Magnitude (Debye)      :      2.450627466

Rotational constants in cm-1:             0.111498             0.073837             0.058783
Rotational constants in MHz :          3342.612675          2213.590986          1762.277012

                             ****ORCA TERMINATED NORMALLY****
TOTAL RUN TIME: 0 days 0 hours 0 minutes 15 seconds 551 msec
