                         Program Version 6.1.0  -  RELEASE   -
|  1> ! B3LYP def2-SVP d3 EnGrad
|  2> %pal nprocs 6 end
|  3> *xyz 0 1
|  4> C   -1.7157896832726 -0.09307407566569 -0.46619893643704
|  5> C   -0.47283717636406 0.05123546613107 0.35211818637218
|  6> N   0.69569462370299 0.20861622272468 -0.19462838484551
|  7> C   1.97142602054307 0.12501012957959 0.37553539197864
|  8> H   -0.54235585990435 0.00204183696051 1.45185550590348
|  9> H   -2.49561697623331 0.62355902285795 -0.15055433031435
| 10> H   -1.4968323364772 0.08239793060188 -1.53080496189179
| 11> H   -2.16301351508946 -1.10136977289793 -0.37082605164277
| 12> H   1.37725488356139 -0.5799581269633 -0.72719949558509
| 13> H   2.74923777637879 0.62351698628457 -0.20776562552543
| 14> H   2.09283224315475 0.05802438038665 1.46846870198769
| 15> *
| 16>
| 17>                          ****END OF INPUT****

CARTESIAN COORDINATES (ANGSTROEM)
---------------------------------
  C     -1.715790   -0.093074   -0.466199
  C     -0.472837    0.051235    0.352118
  N      0.695695    0.208616   -0.194628
  C      1.971426    0.125010    0.375535
  H     -0.542356    0.002042    1.451856
  H     -2.495617    0.623559   -0.150554
  H     -1.496832    0.082398   -1.530805
  H     -2.163014   -1.101370   -0.370826
  H      1.377255   -0.579958   -0.727199
  H      2.749238    0.623517   -0.207766
  H      2.092832    0.058024    1.468469

 Total Charge           Charge          ....    0
 Multiplicity           Mult            ....    1
 Number of Electrons    NEL             ....   32
 Basis Dimension        Dim             ....   91

ORBITAL ENERGIES
----------------

  NO   OCC          E(Eh)            E(eV)
   0   2.0000     -14.361342      -390.7920
   1   2.0000     -10.201692      -277.6021
   2   2.0000     -10.200462      -277.5687
   3   2.0000     -10.182366      -277.0763
   4   2.0000      -0.942045       -25.6343
   5   2.0000      -0.750456       -20.4209
   6   2.0000      -0.661113       -17.9898
   7   2.0000      -0.558857       -15.2073
   8   2.0000      -0.492677       -13.4064
   9   2.0000      -0.463629       -12.6160
  10   2.0000      -0.429934       -11.6991
  11   2.0000      -0.396350       -10.7852
  12   2.0000      -0.379596       -10.3293
  13   2.0000      -0.369726       -10.0608
  14   2.0000      -0.288421        -7.8483
  15   2.0000      -0.182551        -4.9675
  16   0.0000      -0.011845        -0.3223
  17   0.0000       0.057963         1.5772
  18   0.0000       0.082001         2.2314
  19   0.0000       0.094968         2.5842
  20   0.0000       0.117187         3.1888

MULLIKEN ATOMIC CHARGES
-----------------------
   0 C :    0.056196
   1 C :   -0.113483
   2 N :   -0.086851
   3 C :   -0.118451
   4 H :   -0.004832
   5 H :    0.020115
   6 H :    0.011932
   7 H :    0.020074
   8 H :    0.152338
   9 H :    0.039575
  10 H :    0.023390
Sum of atomic charges:   -0.0000000

LOEWDIN ATOMIC CHARGES
----------------------
   0 C :   -0.066754
   1 C :   -0.070705
   2 N :    0.018919
   3 C :   -0.122504
   4 H :    0.001420
   5 H :    0.030436
   6 H :    0.028694
   7 H :    0.027315
   8 H :    0.136120
   9 H :    0.015714
  10 H :    0.001345

  Mayer bond orders larger than 0.100000
B(  0-C ,  1-C ) :   1.0760 B(  0-C ,  5-H ) :   0.9544 B(  0-C ,  6-H ) :   0.9646
B(  0-C ,  7-H ) :   0.9550 B(  1-C ,  2-N ) :   1.6147 B(  1-C ,  3-C ) :   0.2979
B(  1-C ,  4-H ) :   0.9558 B(  2-N ,  3-C ) :   1.0542 B(  2-N ,  8-H ) :   0.5947
B(  3-C ,  8-H ) :   0.4029 B(  3-C ,  9-H ) :   0.9657 B(  3-C , 10-H ) :   0.9508

Dispersion correction           -0.010600671
FINAL SINGLE POINT ENERGY      -172.918046087203
Dispersion correction             ... done (  0.0 sec)

DIPOLE MOMENT
-------------

Method             : SCF
Type of density    : Electron Density
Multiplicity       :   1
Irrep              :   0
Energy             :  -172.9074454160205505 Eh
Basis              : AO
                                X                 Y                 Z
Electronic contribution:      1.082845939       0.528301373       0.074960378
Nuclear contribution   :     -1.211011039      -0.690123238      -0.103690547
                        -----------------------------------------
Total Dipole Moment    :     -0.128165100      -0.161821865      -0.028730169
                        -----------------------------------------
Magnitude (a.u.)       :      0.208417925
Magnitude (Debye)      :      0.529756265

Rotational constants in cm-1:             1.300550             0.135344             0.127236
Rotational constants in MHz :         38989.497871          4057.521506          3814.430721

                             ****ORCA TERMINATED NORMALLY****
TOTAL RUN TIME: 0 days 0 hours 0 minutes 10 seconds 638 msec
