                         Program Version 6.1.0  -  RELEASE   -
|  1> ! B3LYP def2-SVP d3 EnGrad
|  2> %pal nprocs 6 end
|  3> *xyz 0 1
|  4> C   0.08292660227278 -1.15468543569123 -0.14690685108579
|  5> H   0.10232033903568 -2.24005462727565 -0.25601623727719
|  6> H   -1.65549111799022 -0.66337314980324 1.06660099964445
|  7> C   1.13910051452298 -0.31277481514773 -0.22471543252927
|  8> H   2.17709129971653 -0.59598873050607 -0.4105584558599
|  9> C   0.67609331179553 1.06680767804541 -0.01654612754015
| 10> H   1.32389801501697 1.94572958359407 -0.02818866859385
| 11> C   -1.1623631460479 -0.35488444577997 0.12403866226048
| 12> H   -1.92440571078393 -0.49095798495519 -0.66803568814227
| 13> C   -0.66129509854929 1.0623980163711 0.18821127578007
| 14> H   -1.29785500898915 1.9289228911485 0.37215852334343
| 15> *
| 16>
| 17>                          ****END OF INPUT****

CARTESIAN COORDINATES (ANGSTROEM)
---------------------------------
  C      0.082927   -1.154685   -0.146907
  H      0.102320   -2.240055   -0.256016
  H     -1.655491   -0.663373    1.066601
  C      1.139101   -0.312775   -0.224715
  H      2.177091   -0.595989   -0.410558
  C      0.676093    1.066808   -0.016546
  H      1.323898    1.945730   -0.028189
  C     -1.162363   -0.354884    0.124039
  H     -1.924406   -0.490958   -0.668036
  C     -0.661295    1.062398    0.188211
  H     -1.297855    1.928923    0.372159

 Total Charge           Charge          ....    0
 Multiplicity           Mult            ....    1
 Number of Electrons    NEL             ....   36
 Basis Dimension        Dim             ....  100

ORBITAL ENERGIES
----------------

  NO   OCC          E(Eh)            E(eV)
   0   2.0000     -10.190072      -277.2859
   1   2.0000     -10.179638      -277.0020
   2   2.0000     -10.179541      -276.9994
   3   2.0000     -10.178530      -276.9719
   4   2.0000     -10.178518      -276.9716
   5   2.0000      -0.843850       -22.9623
   6   2.0000      -0.691159       -18.8074
   7   2.0000      -0.690935       -18.8013
   8   2.0000      -0.541050       -14.7227
   9   2.0000      -0.520077       -14.1520
  10   2.0000      -0.506935       -13.7944
  11   2.0000      -0.430937       -11.7264
  12   2.0000      -0.393727       -10.7139
  13   2.0000      -0.372298       -10.1308
  14   2.0000      -0.356790        -9.7087
  15   2.0000      -0.356729        -9.7071
  16   2.0000      -0.297890        -8.1060
  17   2.0000      -0.217835        -5.9276
  18   0.0000      -0.018337        -0.4990
  19   0.0000       0.073730         2.0063
  20   0.0000       0.077979         2.1219
  21   0.0000       0.102979         2.8022
  22   0.0000       0.119105         3.2410

MULLIKEN ATOMIC CHARGES
-----------------------
   0 C :   -0.079408
   1 H :   -0.007338
   2 H :    0.037652
   3 C :    0.011711
   4 H :   -0.015813
   5 C :    0.011839
   6 H :   -0.015831
   7 C :    0.106041
   8 H :    0.037754
   9 C :   -0.079112
  10 H :   -0.007495
Sum of atomic charges:    0.0000000

LOEWDIN ATOMIC CHARGES
----------------------
   0 C :   -0.038085
   1 H :    0.019929
   2 H :    0.050511
   3 C :   -0.038182
   4 H :    0.021018
   5 C :   -0.038141
   6 H :    0.021033
   7 C :   -0.030324
   8 H :    0.050386
   9 C :   -0.038016
  10 H :    0.019870

  Mayer bond orders larger than 0.100000
B(  0-C ,  1-H ) :   0.9889 B(  0-C ,  3-C ) :   1.7685 B(  0-C ,  7-C ) :   1.0505
B(  2-H ,  7-C ) :   0.9034 B(  3-C ,  4-H ) :   0.9962 B(  3-C ,  5-C ) :   1.0832
B(  5-C ,  6-H ) :   0.9962 B(  5-C ,  9-C ) :   1.7683 B(  7-C ,  8-H ) :   0.9037
B(  7-C ,  9-C ) :   1.0505 B(  9-C , 10-H ) :   0.9889

Dispersion correction           -0.014835838
FINAL SINGLE POINT ENERGY      -193.846687854705
Dispersion correction             ... done (  0.0 sec)

DIPOLE MOMENT
-------------

Method             : SCF
Type of density    : Electron Density
Multiplicity       :   1
Irrep              :   0
Energy             :  -193.8318520162863763 Eh
Basis              : AO
                                X                 Y                 Z
Electronic contribution:      0.976282624       0.346423663      -0.118965333
Nuclear contribution   :     -1.162417613      -0.412494049       0.142394054
                        -----------------------------------------
Total Dipole Moment    :     -0.186134988      -0.066070386       0.023428721
                        -----------------------------------------
Magnitude (a.u.)       :      0.198898051
Magnitude (Debye)      :      0.505558669

Rotational constants in cm-1:             0.280543             0.273178             0.142063
Rotational constants in MHz :          8410.473450          8189.671751          4258.955866

                             ****ORCA TERMINATED NORMALLY****
TOTAL RUN TIME: 0 days 0 hours 0 minutes 12 seconds 613 msec
