                         Program Version 6.1.0  -  RELEASE   -
|  1> ! B3LYP def2-SVP d3 EnGrad
|  2> %pal nprocs 6 end
|  3> *xyz 0 1
|  4> C   -1.94447144283888 -1.63594577798423 -0.43305206345249
|  5> C   -1.16391461027343 -0.57362976911034 -0.24236223118827
|  6> C   -1.14664629749409 0.70960891019253 0.31640222082221
|  7> C   -0.08134069285674 1.04560482093826 1.16557764372354
|  8> C   1.57530662575366 0.82353621680123 0.0402967304524
|  9> C   1.50514159669888 -0.37348640085712 -0.70739022829004
| 10> H   0.04356855392002 -0.69956320562665 -0.63270353759277
| 11> H   -2.93046416695831 -1.71547937735322 0.03687495069584
| 12> H   -1.61696366817998 -2.47734074248929 -1.05148709379882
| 13> H   1.54713629163283 1.76853272083839 -0.51072550310577
| 14> H   2.23629912522835 0.84875626452721 0.91118668008681
| 15> H   1.95014353310056 -1.28736111726966 -0.29970782322103
| 16> H   1.47178913661686 -0.32281423291786 -1.80043184684466
| 17> H   -0.00069821439997 2.07794986289102 1.52155979970373
| 18> H   0.22777640498543 0.29802956075572 1.90311897944472
| 19> H   -1.67266217493516 1.513602266664 -0.21715667743539
| 20> *
| 21>
| 22>                          ****END OF INPUT****

CARTESIAN COORDINATES (ANGSTROEM)
---------------------------------
  C     -1.944471   -1.635946   -0.433052
  C     -1.163915   -0.573630   -0.242362
  C     -1.146646    0.709609    0.316402
  C     -0.081341    1.045605    1.165578
  C      1.575307    0.823536    0.040297
  C      1.505142   -0.373486   -0.707390
  H      0.043569   -0.699563   -0.632704
  H     -2.930464   -1.715479    0.036875
  H     -1.616964   -2.477341   -1.051487
  H      1.547136    1.768533   -0.510726
  H      2.236299    0.848756    0.911187
  H      1.950144   -1.287361   -0.299708
  H      1.471789   -0.322814   -1.800432
  H     -0.000698    2.077950    1.521560
  H      0.227776    0.298030    1.903119
  H     -1.672662    1.513602   -0.217157

 Total Charge           Charge          ....    0
 Multiplicity           Mult            ....    1
 Number of Electrons    NEL             ....   46
 Basis Dimension        Dim             ....  134

ORBITAL ENERGIES
----------------

  NO   OCC          E(Eh)            E(eV)
   0   2.0000     -10.195398      -277.4309
   1   2.0000     -10.194727      -277.4126
   2   2.0000     -10.186914      -277.2000
   3   2.0000     -10.183550      -277.1085
   4   2.0000     -10.180978      -277.0385
   5   2.0000     -10.180792      -277.0334
   6   2.0000      -0.801226       -21.8025
   7   2.0000      -0.742273       -20.1983
   8   2.0000      -0.713805       -19.4236
   9   2.0000      -0.620228       -16.8773
  10   2.0000      -0.568861       -15.4795
  11   2.0000      -0.518821       -14.1178
  12   2.0000      -0.466276       -12.6880
  13   2.0000      -0.458273       -12.4702
  14   2.0000      -0.442868       -12.0511
  15   2.0000      -0.414782       -11.2868
  16   2.0000      -0.400222       -10.8906
  17   2.0000      -0.387632       -10.5480
  18   2.0000      -0.355278        -9.6676
  19   2.0000      -0.348178        -9.4744
  20   2.0000      -0.290028        -7.8921
  21   2.0000      -0.258405        -7.0315
  22   2.0000      -0.208582        -5.6758
  23   0.0000      -0.030667        -0.8345
  24   0.0000       0.014412         0.3922
  25   0.0000       0.058690         1.5970
  26   0.0000       0.078012         2.1228
  27   0.0000       0.094319         2.5665

MULLIKEN ATOMIC CHARGES
-----------------------
   0 C :   -0.050662
   1 C :   -0.051897
   2 C :   -0.020764
   3 C :   -0.021065
   4 C :   -0.050905
   5 C :   -0.026086
   6 H :   -0.008419
   7 H :    0.023676
   8 H :    0.015804
   9 H :    0.025453
  10 H :    0.032586
  11 H :    0.029844
  12 H :    0.028758
  13 H :    0.017301
  14 H :    0.033592
  15 H :    0.022785
Sum of atomic charges:    0.0000000

LOEWDIN ATOMIC CHARGES
----------------------
   0 C :   -0.070456
   1 C :   -0.032432
   2 C :   -0.065636
   3 C :   -0.017519
   4 C :   -0.029526
   5 C :   -0.085493
   6 H :    0.059945
   7 H :    0.026996
   8 H :    0.023599
   9 H :    0.024285
  10 H :    0.030734
  11 H :    0.023894
  12 H :    0.027581
  13 H :    0.024398
  14 H :    0.027542
  15 H :    0.032089

  Mayer bond orders larger than 0.100000
B(  0-C ,  1-C ) :   1.9909 B(  0-C ,  7-H ) :   0.9547 B(  0-C ,  8-H ) :   0.9293
B(  1-C ,  2-C ) :   1.3196 B(  1-C ,  6-H ) :   0.5686 B(  2-C ,  3-C ) :   1.4524
B(  2-C ,  5-C ) :   0.1591 B(  2-C , 15-H ) :   0.9523 B(  3-C ,  4-C ) :   0.6020
B(  3-C , 13-H ) :   0.9436 B(  3-C , 14-H ) :   0.9499 B(  4-C ,  5-C ) :   1.4907
B(  4-C ,  9-H ) :   0.9499 B(  4-C , 10-H ) :   0.9491 B(  5-C ,  6-H ) :   0.4328
B(  5-C , 11-H ) :   0.9535 B(  5-C , 12-H ) :   0.9357

Dispersion correction           -0.022778601
FINAL SINGLE POINT ENERGY      -234.201182742491
Dispersion correction             ... done (  0.0 sec)

DIPOLE MOMENT
-------------

Method             : SCF
Type of density    : Electron Density
Multiplicity       :   1
Irrep              :   0
Energy             :  -234.1784041411314377 Eh
Basis              : AO
                                X                 Y                 Z
Electronic contribution:     -2.520343658       0.174842909       0.340535608
Nuclear contribution   :      2.756518324       0.009464028      -0.306114917
                        -----------------------------------------
Total Dipole Moment    :      0.236174667       0.184306937       0.034420691
                        -----------------------------------------
Magnitude (a.u.)       :      0.301549837
Magnitude (Debye)      :      0.766478772

Rotational constants in cm-1:             0.174549             0.084241             0.061444
Rotational constants in MHz :          5232.848993          2525.474915          1842.047690

                             ****ORCA TERMINATED NORMALLY****
TOTAL RUN TIME: 0 days 0 hours 0 minutes 19 seconds 862 msec
