                         Program Version 6.1.0  -  RELEASE   -
|  1> ! B3LYP def2-SVP d3 EnGrad
|  2> %pal nprocs 6 end
|  3> *xyz 0 1
|  4> C   -1.02270817005151 -1.30952963485722 0.29179639107253
|  5> C   -1.52576561097888 -0.49384267891554 -0.6503958303623
|  6> C   -1.83534454924658 0.93503184747405 -0.49467718244998
|  7> C   -1.3377255386845 1.7570182179506 0.44355406612825
|  8> C   2.58521446440828 -0.6726851813212 0.07525786017667
|  9> C   1.83520535265853 0.43073097550383 0.64814300011816
| 10> H   -1.75419544271682 -0.918847214865 -1.63576084325907
| 11> H   -0.80601031454675 -0.96013393169854 1.30527374920023
| 12> H   -0.82269601808166 -2.36300636323195 0.07600933953052
| 13> H   3.14862638805093 -0.55996009622006 -0.87201505517066
| 14> H   3.09350374709862 -1.34608618641825 0.78506640844519
| 15> H   1.61694725924749 -1.19165645111908 -0.19696666216922
| 16> H   1.59313366335264 1.1189753457482 -0.19748147698478
| 17> H   -1.64019234470618 2.80715332651849 0.48247241412772
| 18> H   -0.59640197544045 1.42159068740181 1.17615205566263
| 19> H   -2.53159091036315 1.34524733804987 -1.2364282340659
| 20> *
| 21>
| 22>                          ****END OF INPUT****

CARTESIAN COORDINATES (ANGSTROEM)
---------------------------------
  C     -1.022708   -1.309530    0.291796
  C     -1.525766   -0.493843   -0.650396
  C     -1.835345    0.935032   -0.494677
  C     -1.337726    1.757018    0.443554
  C      2.585214   -0.672685    0.075258
  C      1.835205    0.430731    0.648143
  H     -1.754195   -0.918847   -1.635761
  H     -0.806010   -0.960134    1.305274
  H     -0.822696   -2.363006    0.076009
  H      3.148626   -0.559960   -0.872015
  H      3.093504   -1.346086    0.785066
  H      1.616947   -1.191656   -0.196967
  H      1.593134    1.118975   -0.197481
  H     -1.640192    2.807153    0.482472
  H     -0.596402    1.421591    1.176152
  H     -2.531591    1.345247   -1.236428

 Total Charge           Charge          ....    0
 Multiplicity           Mult            ....    1
 Number of Electrons    NEL             ....   46
 Basis Dimension        Dim             ....  134

ORBITAL ENERGIES
----------------

  NO   OCC          E(Eh)            E(eV)
   0   2.0000     -10.214879      -277.9610
   1   2.0000     -10.202135      -277.6142
   2   2.0000     -10.194404      -277.4038
   3   2.0000     -10.188879      -277.2535
   4   2.0000     -10.185721      -277.1676
   5   2.0000     -10.180076      -277.0140
   6   2.0000      -0.792484       -21.5646
   7   2.0000      -0.769269       -20.9329
   8   2.0000      -0.716245       -19.4900
   9   2.0000      -0.609512       -16.5857
  10   2.0000      -0.565481       -15.3875
  11   2.0000      -0.518028       -14.0963
  12   2.0000      -0.485970       -13.2239
  13   2.0000      -0.444994       -12.1089
  14   2.0000      -0.435036       -11.8379
  15   2.0000      -0.423472       -11.5233
  16   2.0000      -0.416466       -11.3326
  17   2.0000      -0.369616       -10.0578
  18   2.0000      -0.360249        -9.8029
  19   2.0000      -0.345548        -9.4028
  20   2.0000      -0.316395        -8.6096
  21   2.0000      -0.235076        -6.3967
  22   2.0000      -0.210274        -5.7219
  23   0.0000      -0.074854        -2.0369
  24   0.0000      -0.036145        -0.9836
  25   0.0000       0.063792         1.7359
  26   0.0000       0.069970         1.9040
  27   0.0000       0.078675         2.1409

MULLIKEN ATOMIC CHARGES
-----------------------
   0 C :   -0.028774
   1 C :   -0.034994
   2 C :   -0.024767
   3 C :   -0.036063
   4 C :   -0.022557
   5 C :   -0.156557
   6 H :   -0.003822
   7 H :    0.041655
   8 H :    0.021719
   9 H :    0.031922
  10 H :    0.049780
  11 H :    0.057979
  12 H :    0.036839
  13 H :    0.021347
  14 H :    0.051623
  15 H :   -0.005331
Sum of atomic charges:   -0.0000000

LOEWDIN ATOMIC CHARGES
----------------------
   0 C :   -0.050324
   1 C :   -0.036435
   2 C :   -0.044779
   3 C :   -0.030684
   4 C :   -0.101090
   5 C :   -0.054382
   6 H :    0.026117
   7 H :    0.027961
   8 H :    0.023030
   9 H :    0.021552
  10 H :    0.031649
  11 H :    0.104485
  12 H :    0.004180
  13 H :    0.024810
  14 H :    0.028360
  15 H :    0.025548

  Mayer bond orders larger than 0.100000
B(  0-C ,  1-C ) :   1.9319 B(  0-C ,  3-C ) :   0.1014 B(  0-C ,  7-H ) :   0.9470
B(  0-C ,  8-H ) :   0.9421 B(  1-C ,  2-C ) :   1.0924 B(  1-C ,  6-H ) :   0.9576
B(  2-C ,  3-C ) :   1.9444 B(  2-C , 15-H ) :   0.9573 B(  3-C , 13-H ) :   0.9480
B(  3-C , 14-H ) :   0.9387 B(  4-C ,  5-C ) :   1.1441 B(  4-C ,  9-H ) :   0.9272
B(  4-C , 10-H ) :   0.9569 B(  4-C , 11-H ) :   0.8364 B(  5-C , 11-H ) :   0.1533
B(  5-C , 12-H ) :   0.9106

Dispersion correction           -0.019634512
FINAL SINGLE POINT ENERGY      -234.139419732981
Dispersion correction             ... done (  0.1 sec)

DIPOLE MOMENT
-------------

Method             : SCF
Type of density    : Electron Density
Multiplicity       :   1
Irrep              :   0
Energy             :  -234.1197852211997201 Eh
Basis              : AO
                                X                 Y                 Z
Electronic contribution:     -2.623257325       1.087684129      -0.057193685
Nuclear contribution   :      2.855722119      -1.419436319      -0.688464771
                        -----------------------------------------
Total Dipole Moment    :      0.232464794      -0.331752190      -0.745658457
                        -----------------------------------------
Magnitude (a.u.)       :      0.848590555
Magnitude (Debye)      :      2.156945775

Rotational constants in cm-1:             0.149873             0.057365             0.045816
Rotational constants in MHz :          4493.077625          1719.769948          1373.516578

                             ****ORCA TERMINATED NORMALLY****
TOTAL RUN TIME: 0 days 0 hours 0 minutes 17 seconds 175 msec
