                         Program Version 6.1.0  -  RELEASE   -
|  1> ! B3LYP def2-SVP d3 EnGrad
|  2> %pal nprocs 6 end
|  3> *xyz 0 1
|  4> Si   0.54723760700027 -0.05484551505126 -0.70289797476259
|  5> H   0.60018066247123 -1.25539059318789 0.23458026782785
|  6> H   0.97283138268473 0.95866131382269 0.35264593679644
|  7> H   -1.18371913155508 0.21686268079771 -0.33213004470414
|  8> H   -0.93653053060115 0.13471212361874 0.44780181484245
|  9> *
| 10>
| 11>                          ****END OF INPUT****

CARTESIAN COORDINATES (ANGSTROEM)
---------------------------------
  Si     0.547238   -0.054846   -0.702898
  H      0.600181   -1.255391    0.234580
  H      0.972831    0.958661    0.352646
  H     -1.183719    0.216863   -0.332130
  H     -0.936531    0.134712    0.447802

 Total Charge           Charge          ....    0
 Multiplicity           Mult            ....    1
 Number of Electrons    NEL             ....   18
 Basis Dimension        Dim             ....   38

ORBITAL ENERGIES
----------------

  NO   OCC          E(Eh)            E(eV)
   0   2.0000     -66.108477     -1798.9031
   1   2.0000      -5.277937      -143.6200
   2   2.0000      -3.644149       -99.1623
   3   2.0000      -3.636692       -98.9594
   4   2.0000      -3.635370       -98.9234
   5   2.0000      -0.584950       -15.9173
   6   2.0000      -0.425678       -11.5833
   7   2.0000      -0.325323        -8.8525
   8   2.0000      -0.237497        -6.4626
   9   0.0000      -0.044113        -1.2004
  10   0.0000       0.037009         1.0071
  11   0.0000       0.045948         1.2503
  12   0.0000       0.084616         2.3025
  13   0.0000       0.240818         6.5530

MULLIKEN ATOMIC CHARGES
-----------------------
   0 Si:    0.096715
   1 H :   -0.096798
   2 H :   -0.096770
   3 H :    0.041271
   4 H :    0.055583
Sum of atomic charges:   -0.0000000

LOEWDIN ATOMIC CHARGES
----------------------
   0 Si:    0.058638
   1 H :   -0.106522
   2 H :   -0.106479
   3 H :    0.060846
   4 H :    0.093518

  Mayer bond orders larger than 0.100000
B(  0-Si,  1-H ) :   0.9187 B(  0-Si,  2-H ) :   0.9186 B(  0-Si,  3-H ) :   0.3193
B(  0-Si,  4-H ) :   0.2821 B(  3-H ,  4-H ) :   0.6575

Dispersion correction           -0.003658047
FINAL SINGLE POINT ENERGY      -291.662780895928
Dispersion correction             ... done (  0.0 sec)

DIPOLE MOMENT
-------------

Method             : SCF
Type of density    : Electron Density
Multiplicity       :   1
Irrep              :   0
Energy             :  -291.6591228493301742 Eh
Basis              : AO
                                X                 Y                 Z
Electronic contribution:      1.878433372      -0.174462737      -2.670790280
Nuclear contribution   :     -2.249660875       0.225466620       2.889571270
                        -----------------------------------------
Total Dipole Moment    :     -0.371227503       0.051003883       0.218780990
                        -----------------------------------------
Magnitude (a.u.)       :      0.433908258
Magnitude (Debye)      :      1.102907144

Rotational constants in cm-1:             3.510078             2.024138             1.955429
Rotational constants in MHz :        105229.499175         60682.141020         58622.297728

                             ****ORCA TERMINATED NORMALLY****
TOTAL RUN TIME: 0 days 0 hours 0 minutes 4 seconds 425 msec
