                         Program Version 6.1.0  -  RELEASE   -
|  1> ! B3LYP def2-SVP d3 EnGrad
|  2> %pal nprocs 6 end
|  3> *xyz 0 1
|  4> H   -1.87356380547048 0.80578766822504 -0.27993940166503
|  5> C   -0.82138569044346 0.5252254607326 -0.47226959903528
|  6> C   -0.70613429460986 -0.97609473425804 -0.40314143552758
|  7> H   -0.62343885299505 0.80811433299247 -1.52485747201856
|  8> H   -1.50651839450951 -1.55124996063118 -0.93811341248153
|  9> O   0.18482904734931 -1.56384566241364 0.1676033352928
| 10> H   1.59184873746617 2.89265925e-06 0.33708461471509
| 11> O   1.49063004107147 0.95189819678208 0.18084076965546
| 12> C   0.14814710381942 1.24755773244408 0.46700666583863
| 13> H   0.01943659998767 2.33658478093901 0.35745142978963
| 14> H   -0.11806549166566 0.9973192925283 1.51535950543642
| 15> *
| 16>
| 17>                          ****END OF INPUT****

CARTESIAN COORDINATES (ANGSTROEM)
---------------------------------
  H     -1.873564    0.805788   -0.279939
  C     -0.821386    0.525225   -0.472270
  C     -0.706134   -0.976095   -0.403141
  H     -0.623439    0.808114   -1.524857
  H     -1.506518   -1.551250   -0.938113
  O      0.184829   -1.563846    0.167603
  H      1.591849    0.000003    0.337085
  O      1.490630    0.951898    0.180841
  C      0.148147    1.247558    0.467007
  H      0.019437    2.336585    0.357451
  H     -0.118065    0.997319    1.515360

 Total Charge           Charge          ....    0
 Multiplicity           Mult            ....    1
 Number of Electrons    NEL             ....   40
 Basis Dimension        Dim             ....  100

ORBITAL ENERGIES
----------------

  NO   OCC          E(Eh)            E(eV)
   0   2.0000     -19.151643      -521.1427
   1   2.0000     -19.114827      -520.1409
   2   2.0000     -10.290705      -280.0243
   3   2.0000     -10.234686      -278.5000
   4   2.0000     -10.204893      -277.6893
   5   2.0000      -1.054934       -28.7062
   6   2.0000      -0.997836       -27.1525
   7   2.0000      -0.773993       -21.0614
   8   2.0000      -0.653700       -17.7881
   9   2.0000      -0.570071       -15.5124
  10   2.0000      -0.511346       -13.9144
  11   2.0000      -0.494299       -13.4505
  12   2.0000      -0.455294       -12.3892
  13   2.0000      -0.444797       -12.1035
  14   2.0000      -0.418100       -11.3771
  15   2.0000      -0.400669       -10.9028
  16   2.0000      -0.374288       -10.1849
  17   2.0000      -0.330741        -8.9999
  18   2.0000      -0.271920        -7.3993
  19   2.0000      -0.261977        -7.1288
  20   0.0000      -0.039763        -1.0820
  21   0.0000       0.056575         1.5395
  22   0.0000       0.084414         2.2970
  23   0.0000       0.099545         2.7087
  24   0.0000       0.115382         3.1397

MULLIKEN ATOMIC CHARGES
-----------------------
   0 H :    0.022527
   1 C :   -0.032564
   2 C :    0.124678
   3 H :    0.041658
   4 H :    0.007098
   5 O :   -0.218917
   6 H :    0.164378
   7 O :   -0.325812
   8 C :    0.217717
   9 H :    0.003351
  10 H :   -0.004114
Sum of atomic charges:    0.0000000

LOEWDIN ATOMIC CHARGES
----------------------
   0 H :    0.040648
   1 C :   -0.096138
   2 C :    0.128666
   3 H :    0.050145
   4 H :   -0.001737
   5 O :   -0.139349
   6 H :    0.060870
   7 O :   -0.144324
   8 C :    0.075565
   9 H :    0.020053
  10 H :    0.005602

  Mayer bond orders larger than 0.100000
B(  0-H ,  1-C ) :   0.9154 B(  1-C ,  2-C ) :   0.9849 B(  1-C ,  3-H ) :   0.9029
B(  1-C ,  8-C ) :   1.0489 B(  2-C ,  4-H ) :   0.9384 B(  2-C ,  5-O ) :   2.1005
B(  6-H ,  7-O ) :   0.9656 B(  7-O ,  8-C ) :   1.0595 B(  8-C ,  9-H ) :   0.9462
B(  8-C , 10-H ) :   0.9459

Dispersion correction           -0.012334167
FINAL SINGLE POINT ENERGY      -268.024136918723
Dispersion correction             ... done (  0.1 sec)

DIPOLE MOMENT
-------------

Method             : SCF
Type of density    : Electron Density
Multiplicity       :   1
Irrep              :   0
Energy             :  -268.0118027521215822 Eh
Basis              : AO
                                X                 Y                 Z
Electronic contribution:      1.825520322      -2.800629744       0.214678261
Nuclear contribution   :     -2.919086230       2.932915674      -0.505001830
                        -----------------------------------------
Total Dipole Moment    :     -1.093565908       0.132285930      -0.290323569
                        -----------------------------------------
Magnitude (a.u.)       :      1.139154835
Magnitude (Debye)      :      2.895501481

Rotational constants in cm-1:             0.286219             0.141531             0.104440
Rotational constants in MHz :          8580.619406          4242.994349          3131.021276

                             ****ORCA TERMINATED NORMALLY****
TOTAL RUN TIME: 0 days 0 hours 0 minutes 12 seconds 399 msec
