                         Program Version 6.1.0  -  RELEASE   -
|  1> ! B3LYP def2-SVP d3 EnGrad
|  2> %pal nprocs 6 end
|  3> *xyz 0 1
|  4> C   1.51073699894829 -0.70776355151362 -0.26372834481198
|  5> C   -0.62094544472753 -1.15852240797689 0.24598199604843
|  6> C   -1.24173882644677 -0.65732458224394 -0.90730268118818
|  7> C   -1.22226579378092 0.74821071145754 -0.86198917870966
|  8> C   -0.58904319991255 1.1565676009017 0.32082092547635
|  9> C   1.52980842216128 0.68217964894462 -0.21794828187008
| 10> H   -0.60420757513788 -2.21354842256955 0.52823793346236
| 11> H   1.92176205750488 1.19642740008894 0.66287387160249
| 12> H   1.51685978540766 -1.22818363484564 -1.22260386168095
| 13> H   -1.5261232002996 1.41023636009014 -1.67512946941585
| 14> H   -0.54324043445596 2.1902154433256 0.6706807473291
| 15> H   1.55170585385637 1.26421930799351 -1.14047237654856
| 16> H   1.88772827504988 -1.28962599137031 0.58069430379859
| 17> H   -1.56322925325319 -1.25705261272638 -1.76105266815463
| 18> C   -0.60822005802279 -0.03226184426529 1.2511988762616
| 19> H   -1.58408361827095 -0.0359202347298 1.77967102901842
| 20> H   0.18449601137979 -0.06785319056062 2.01006717938256
| 21> *
| 22>
| 23>                          ****END OF INPUT****

CARTESIAN COORDINATES (ANGSTROEM)
---------------------------------
  C      1.510737   -0.707764   -0.263728
  C     -0.620945   -1.158522    0.245982
  C     -1.241739   -0.657325   -0.907303
  C     -1.222266    0.748211   -0.861989
  C     -0.589043    1.156568    0.320821
  C      1.529808    0.682180   -0.217948
  H     -0.604208   -2.213548    0.528238
  H      1.921762    1.196427    0.662874
  H      1.516860   -1.228184   -1.222604
  H     -1.526123    1.410236   -1.675129
  H     -0.543240    2.190215    0.670681
  H      1.551706    1.264219   -1.140472
  H      1.887728   -1.289626    0.580694
  H     -1.563229   -1.257053   -1.761053
  C     -0.608220   -0.032262    1.251199
  H     -1.584084   -0.035920    1.779671
  H      0.184496   -0.067853    2.010067

 Total Charge           Charge          ....    0
 Multiplicity           Mult            ....    1
 Number of Electrons    NEL             ....   52
 Basis Dimension        Dim             ....  148

ORBITAL ENERGIES
----------------

  NO   OCC          E(Eh)            E(eV)
   0   2.0000     -10.192476      -277.3514
   1   2.0000     -10.192436      -277.3503
   2   2.0000     -10.185774      -277.1690
   3   2.0000     -10.177030      -276.9311
   4   2.0000     -10.176605      -276.9195
   5   2.0000     -10.174596      -276.8648
   6   2.0000     -10.174246      -276.8553
   7   2.0000      -0.850421       -23.1411
   8   2.0000      -0.730011       -19.8646
   9   2.0000      -0.690933       -18.8012
  10   2.0000      -0.686648       -18.6846
  11   2.0000      -0.562218       -15.2987
  12   2.0000      -0.543705       -14.7950
  13   2.0000      -0.513827       -13.9819
  14   2.0000      -0.506930       -13.7943
  15   2.0000      -0.453340       -12.3360
  16   2.0000      -0.431183       -11.7331
  17   2.0000      -0.399630       -10.8745
  18   2.0000      -0.381017       -10.3680
  19   2.0000      -0.369528       -10.0554
  20   2.0000      -0.366377        -9.9696
  21   2.0000      -0.355114        -9.6631
  22   2.0000      -0.337629        -9.1873
  23   2.0000      -0.309112        -8.4114
  24   2.0000      -0.225316        -6.1312
  25   2.0000      -0.222319        -6.0496
  26   0.0000      -0.007917        -0.2154
  27   0.0000       0.014242         0.3875
  28   0.0000       0.065159         1.7731
  29   0.0000       0.096724         2.6320
  30   0.0000       0.100310         2.7296

MULLIKEN ATOMIC CHARGES
-----------------------
   0 C :   -0.012293
   1 C :   -0.084286
   2 C :    0.012263
   3 C :    0.012262
   4 C :   -0.084107
   5 C :   -0.012243
   6 H :   -0.000383
   7 H :    0.012133
   8 H :    0.011822
   9 H :   -0.019496
  10 H :   -0.000374
  11 H :    0.011891
  12 H :    0.012091
  13 H :   -0.019479
  14 C :    0.120807
  15 H :    0.033420
  16 H :    0.005970
Sum of atomic charges:    0.0000000

LOEWDIN ATOMIC CHARGES
----------------------
   0 C :   -0.049739
   1 C :   -0.005047
   2 C :   -0.044365
   3 C :   -0.044413
   4 C :   -0.004978
   5 C :   -0.049768
   6 H :    0.017872
   7 H :    0.020263
   8 H :    0.019525
   9 H :    0.018713
  10 H :    0.017871
  11 H :    0.019547
  12 H :    0.020246
  13 H :    0.018713
  14 C :   -0.022457
  15 H :    0.045743
  16 H :    0.022273

  Mayer bond orders larger than 0.100000
B(  0-C ,  1-C ) :   0.4223 B(  0-C ,  5-C ) :   1.6522 B(  0-C ,  8-H ) :   0.9470
B(  0-C , 12-H ) :   0.9434 B(  1-C ,  2-C ) :   1.3924 B(  1-C ,  4-C ) :   0.1152
B(  1-C ,  6-H ) :   0.9718 B(  1-C , 14-C ) :   1.0350 B(  2-C ,  3-C ) :   1.3662
B(  2-C , 13-H ) :   1.0002 B(  3-C ,  4-C ) :   1.3924 B(  3-C ,  9-H ) :   1.0002
B(  4-C ,  5-C ) :   0.4224 B(  4-C , 10-H ) :   0.9717 B(  4-C , 14-C ) :   1.0350
B(  5-C ,  7-H ) :   0.9434 B(  5-C , 11-H ) :   0.9470 B( 14-C , 15-H ) :   0.8986
B( 14-C , 16-H ) :   0.9415

Dispersion correction           -0.030137846
FINAL SINGLE POINT ENERGY      -272.302450368290
Dispersion correction             ... done (  0.0 sec)

DIPOLE MOMENT
-------------

Method             : SCF
Type of density    : Electron Density
Multiplicity       :   1
Irrep              :   0
Energy             :  -272.2723125226141292 Eh
Basis              : AO
                                X                 Y                 Z
Electronic contribution:     -2.586134510       0.059282408      -0.734102279
Nuclear contribution   :      2.526186684      -0.063243937       0.880875379
                        -----------------------------------------
Total Dipole Moment    :     -0.059947826      -0.003961529       0.146773100
                        -----------------------------------------
Magnitude (a.u.)       :      0.158593123
Magnitude (Debye)      :      0.403111683

Rotational constants in cm-1:             0.126427             0.092808             0.084709
Rotational constants in MHz :          3790.184868          2782.323258          2539.514201

                             ****ORCA TERMINATED NORMALLY****
TOTAL RUN TIME: 0 days 0 hours 0 minutes 24 seconds 362 msec
