                         Program Version 6.1.0  -  RELEASE   -
|  1> ! B3LYP def2-SVP d3 EnGrad
|  2> %pal nprocs 6 end
|  3> *xyz 0 1
|  4> C   6.62895e-09 -6.83991e-09 0.49817407958472
|  5> H   -3.33786e-09 3.43708e-09 1.57770129832965
|  6> N   -3.29108e-09 3.40286e-09 -0.65727637791438
|  7> *
|  8>
|  9>                          ****END OF INPUT****

CARTESIAN COORDINATES (ANGSTROEM)
---------------------------------
  C      0.000000   -0.000000    0.498174
  H     -0.000000    0.000000    1.577701
  N     -0.000000    0.000000   -0.657276

 Total Charge           Charge          ....    0
 Multiplicity           Mult            ....    1
 Number of Electrons    NEL             ....   14
 Basis Dimension        Dim             ....   33

ORBITAL ENERGIES
----------------

  NO   OCC          E(Eh)            E(eV)
   0   2.0000     -14.349650      -390.4738
   1   2.0000     -10.242854      -278.7222
   2   2.0000      -0.911070       -24.7915
   3   2.0000      -0.598639       -16.2898
   4   2.0000      -0.378146       -10.2899
   5   2.0000      -0.362862        -9.8740
   6   2.0000      -0.362862        -9.8740
   7   0.0000       0.016300         0.4436
   8   0.0000       0.016300         0.4436
   9   0.0000       0.056138         1.5276
  10   0.0000       0.175639         4.7794
  11   0.0000       0.466849        12.7036

MULLIKEN ATOMIC CHARGES
-----------------------
   0 C :   -0.089278
   1 H :    0.086548
   2 N :    0.002730
Sum of atomic charges:   -0.0000000

LOEWDIN ATOMIC CHARGES
----------------------
   0 C :   -0.014279
   1 H :    0.043890
   2 N :   -0.029611

  Mayer bond orders larger than 0.100000
B(  0-C ,  1-H ) :   1.0007 B(  0-C ,  2-N ) :   2.9995

Dispersion correction           -0.001454423
FINAL SINGLE POINT ENERGY       -93.301868181715
Dispersion correction             ... done (  0.0 sec)

DIPOLE MOMENT
-------------

Method             : SCF
Type of density    : Electron Density
Multiplicity       :   1
Irrep              :   0
Energy             :   -93.3004137586957256 Eh
Basis              : AO
                                X                 Y                 Z
Electronic contribution:      0.000000004      -0.000000006      -0.414330581
Nuclear contribution   :     -0.000000004       0.000000004       1.533548479
                        -----------------------------------------
Total Dipole Moment    :     -0.000000000      -0.000000002       1.119217898
                        -----------------------------------------
Magnitude (a.u.)       :      1.119217898
Magnitude (Debye)      :      2.844825814

Rotational constants in cm-1:             0.000000             1.473249             1.473249
Rotational constants in MHz :             0.000000         44166.881941         44166.881941

                             ****ORCA TERMINATED NORMALLY****
TOTAL RUN TIME: 0 days 0 hours 0 minutes 4 seconds 469 msec
