                         Program Version 6.1.0  -  RELEASE   -
|  1> ! B3LYP def2-SVP d3 EnGrad
|  2> %pal nprocs 6 end
|  3> *xyz 0 1
|  4> C   -0.57278942544397 -6.96267193e-06 0.64769278529283
|  5> H   -0.67060849178478 0.91772144022705 1.23450551117855
|  6> H   -0.67061179454838 -0.91775161769606 1.23447975980137
|  7> C   -0.93791081550729 1.164348964e-05 -0.68152247576562
|  8> H   -0.99527000489361 -0.93217388177343 -1.24952330391848
|  9> H   -0.9952668785801 0.93221265351941 -1.24949815422559
| 10> C   1.32228334575966 -9.03384244e-06 0.46561973450466
| 11> F   1.76008372977824 -1.05742540350201 -0.20089004375507
| 12> F   1.76009033522024 1.05742116224976 -0.20086381311266
| 13> *
| 14>
| 15>                          ****END OF INPUT****

CARTESIAN COORDINATES (ANGSTROEM)
---------------------------------
  C     -0.572789   -0.000007    0.647693
  H     -0.670608    0.917721    1.234506
  H     -0.670612   -0.917752    1.234480
  C     -0.937911    0.000012   -0.681522
  H     -0.995270   -0.932174   -1.249523
  H     -0.995267    0.932213   -1.249498
  C      1.322283   -0.000009    0.465620
  F      1.760084   -1.057425   -0.200890
  F      1.760090    1.057421   -0.200864

 Total Charge           Charge          ....    0
 Multiplicity           Mult            ....    1
 Number of Electrons    NEL             ....   40
 Basis Dimension        Dim             ....   90

ORBITAL ENERGIES
----------------

  NO   OCC          E(Eh)            E(eV)
   0   2.0000     -24.720977      -672.6920
   1   2.0000     -24.720902      -672.6899
   2   2.0000     -10.350786      -281.6592
   3   2.0000     -10.222411      -278.1659
   4   2.0000     -10.202038      -277.6116
   5   2.0000      -1.271561       -34.6009
   6   2.0000      -1.200956       -32.6797
   7   2.0000      -0.779532       -21.2121
   8   2.0000      -0.662210       -18.0197
   9   2.0000      -0.597444       -16.2573
  10   2.0000      -0.564786       -15.3686
  11   2.0000      -0.521046       -14.1784
  12   2.0000      -0.508462       -13.8360
  13   2.0000      -0.481599       -13.1050
  14   2.0000      -0.439971       -11.9722
  15   2.0000      -0.432593       -11.7714
  16   2.0000      -0.418180       -11.3793
  17   2.0000      -0.371357       -10.1051
  18   2.0000      -0.363138        -9.8815
  19   2.0000      -0.212378        -5.7791
  20   0.0000      -0.077906        -2.1199
  21   0.0000       0.073770         2.0074
  22   0.0000       0.080445         2.1890
  23   0.0000       0.094983         2.5846
  24   0.0000       0.105637         2.8745

MULLIKEN ATOMIC CHARGES
-----------------------
   0 C :    0.014290
   1 H :    0.052920
   2 H :    0.052920
   3 C :   -0.088559
   4 H :    0.044425
   5 H :    0.044425
   6 C :    0.185156
   7 F :   -0.152788
   8 F :   -0.152788
Sum of atomic charges:    0.0000000

LOEWDIN ATOMIC CHARGES
----------------------
   0 C :   -0.026405
   1 H :    0.038908
   2 H :    0.038909
   3 C :   -0.042114
   4 H :    0.025494
   5 H :    0.025494
   6 C :    0.032997
   7 F :   -0.046641
   8 F :   -0.046641

  Mayer bond orders larger than 0.100000
B(  0-C ,  1-H ) :   0.9541 B(  0-C ,  2-H ) :   0.9541 B(  0-C ,  3-C ) :   1.5350
B(  0-C ,  6-C ) :   0.5034 B(  3-C ,  4-H ) :   0.9685 B(  3-C ,  5-H ) :   0.9685
B(  3-C ,  6-C ) :   0.4048 B(  6-C ,  7-F ) :   1.1245 B(  6-C ,  8-F ) :   1.1245

Dispersion correction           -0.009029574
FINAL SINGLE POINT ENERGY      -315.889412194165
Dispersion correction             ... done (  0.1 sec)

DIPOLE MOMENT
-------------

Method             : SCF
Type of density    : Electron Density
Multiplicity       :   1
Irrep              :   0
Energy             :  -315.8803826198675324 Eh
Basis              : AO
                                X                 Y                 Z
Electronic contribution:      7.405241436      -0.000013498      -0.437918800
Nuclear contribution   :     -7.877989833       0.000015015       0.404327262
                        -----------------------------------------
Total Dipole Moment    :     -0.472748397       0.000001517      -0.033591539
                        -----------------------------------------
Magnitude (a.u.)       :      0.473940332
Magnitude (Debye)      :      1.204660588

Rotational constants in cm-1:             0.252244             0.130732             0.109475
Rotational constants in MHz :          7562.070439          3919.258069          3281.969568

                             ****ORCA TERMINATED NORMALLY****
TOTAL RUN TIME: 0 days 0 hours 0 minutes 10 seconds 968 msec
