                         Program Version 6.1.0  -  RELEASE   -
|  1> ! B3LYP def2-SVP d3 EnGrad
|  2> %pal nprocs 6 end
|  3> *xyz 0 1
|  4> P   -0.52105577869669 -0.20585864282991 -0.2296326244461
|  5> H   -0.3839337677661 -0.13871417512049 1.19319993568014
|  6> C   1.24103144016823 0.23904300562023 -0.6476863702378
|  7> C   -0.42942572325115 -2.06469635729116 -0.37900635280115
|  8> H   1.39843445128595 0.09354334521154 -1.72847780212822
|  9> H   1.4004117360854 1.30435203981496 -0.42271894638
| 10> H   1.98127278829752 -0.36323683909155 -0.09763747889976
| 11> H   -0.36057172235677 -2.33159274383519 -1.44575539827669
| 12> H   0.43396343775696 -2.49992347461723 0.14900003490968
| 13> H   -1.35384280297568 -2.51276311143043 0.0174768347453
| 14> H   -1.10214797501308 2.80270717196216 -0.63153779375993
| 15> C   -0.56249335879941 3.51546044882363 0.00042023692891
| 16> C   -0.45592765862787 3.33054181441273 1.31719057673233
| 17> H   -0.11395402248864 4.3818945467241 -0.49693697336158
| 18> H   0.08333481291334 4.03530229942901 1.9587054074248
| 19> H   -0.90597885653195 2.46214667221758 1.8089167138701
| 20> *
| 21>
| 22>                          ****END OF INPUT****

CARTESIAN COORDINATES (ANGSTROEM)
---------------------------------
  P     -0.521056   -0.205859   -0.229633
  H     -0.383934   -0.138714    1.193200
  C      1.241031    0.239043   -0.647686
  C     -0.429426   -2.064696   -0.379006
  H      1.398434    0.093543   -1.728478
  H      1.400412    1.304352   -0.422719
  H      1.981273   -0.363237   -0.097637
  H     -0.360572   -2.331593   -1.445755
  H      0.433963   -2.499923    0.149000
  H     -1.353843   -2.512763    0.017477
  H     -1.102148    2.802707   -0.631538
  C     -0.562493    3.515460    0.000420
  C     -0.455928    3.330542    1.317191
  H     -0.113954    4.381895   -0.496937
  H      0.083335    4.035302    1.958705
  H     -0.905979    2.462147    1.808917

 Total Charge           Charge          ....    0
 Multiplicity           Mult            ....    1
 Number of Electrons    NEL             ....   50
 Basis Dimension        Dim             ....  129

ORBITAL ENERGIES
----------------

  NO   OCC          E(Eh)            E(eV)
   0   2.0000     -77.038656     -2096.3284
   1   2.0000     -10.184782      -277.1420
   2   2.0000     -10.183370      -277.1036
   3   2.0000     -10.183020      -277.0941
   4   2.0000     -10.179979      -277.0113
   5   2.0000      -6.536606      -177.8701
   6   2.0000      -4.701962      -127.9469
   7   2.0000      -4.701825      -127.9432
   8   2.0000      -4.699035      -127.8672
   9   2.0000      -0.746176       -20.3045
  10   2.0000      -0.732525       -19.9330
  11   2.0000      -0.675816       -18.3899
  12   2.0000      -0.565893       -15.3987
  13   2.0000      -0.549879       -14.9630
  14   2.0000      -0.461674       -12.5628
  15   2.0000      -0.427464       -11.6319
  16   2.0000      -0.419251       -11.4084
  17   2.0000      -0.414390       -11.2761
  18   2.0000      -0.398135       -10.8338
  19   2.0000      -0.393453       -10.7064
  20   2.0000      -0.349965        -9.5230
  21   2.0000      -0.335417        -9.1272
  22   2.0000      -0.329532        -8.9670
  23   2.0000      -0.270559        -7.3623
  24   2.0000      -0.232568        -6.3285
  25   0.0000       0.009143         0.2488
  26   0.0000       0.040165         1.0930
  27   0.0000       0.051653         1.4055
  28   0.0000       0.085068         2.3148
  29   0.0000       0.087781         2.3886

MULLIKEN ATOMIC CHARGES
-----------------------
   0 P :    0.156599
   1 H :   -0.052018
   2 C :   -0.189126
   3 C :   -0.187142
   4 H :    0.044607
   5 H :    0.051896
   6 H :    0.038451
   7 H :    0.046507
   8 H :    0.040793
   9 H :    0.047000
  10 H :    0.044865
  11 C :   -0.059844
  12 C :   -0.065951
  13 H :    0.025334
  14 H :    0.026290
  15 H :    0.031738
Sum of atomic charges:    0.0000000

LOEWDIN ATOMIC CHARGES
----------------------
   0 P :    0.375899
   1 H :   -0.081036
   2 C :   -0.217272
   3 C :   -0.219321
   4 H :    0.025820
   5 H :    0.028476
   6 H :    0.019876
   7 H :    0.026634
   8 H :    0.020591
   9 H :    0.027838
  10 H :    0.022067
  11 C :   -0.048013
  12 C :   -0.050540
  13 H :    0.022954
  14 H :    0.023058
  15 H :    0.022969

  Mayer bond orders larger than 0.100000
B(  0-P ,  1-H ) :   0.9239 B(  0-P ,  2-C ) :   1.0247 B(  0-P ,  3-C ) :   1.0091
B(  2-C ,  4-H ) :   0.9701 B(  2-C ,  5-H ) :   0.9653 B(  2-C ,  6-H ) :   0.9635
B(  3-C ,  7-H ) :   0.9718 B(  3-C ,  8-H ) :   0.9645 B(  3-C ,  9-H ) :   0.9698
B( 10-H , 11-C ) :   0.9528 B( 11-C , 12-C ) :   2.0662 B( 11-C , 13-H ) :   0.9608
B( 12-C , 14-H ) :   0.9620 B( 12-C , 15-H ) :   0.9594

Dispersion correction           -0.019696147
FINAL SINGLE POINT ENERGY      -499.998283422275
Dispersion correction             ... done (  0.1 sec)

DIPOLE MOMENT
-------------

Method             : SCF
Type of density    : Electron Density
Multiplicity       :   1
Irrep              :   0
Energy             :  -499.9785872752161140 Eh
Basis              : AO
                                X                 Y                 Z
Electronic contribution:     -2.953981304      -0.811878536      -0.795700175
Nuclear contribution   :      3.310666239       0.566450772       0.837060563
                        -----------------------------------------
Total Dipole Moment    :      0.356684935      -0.245427764       0.041360388
                        -----------------------------------------
Magnitude (a.u.)       :      0.434936331
Magnitude (Debye)      :      1.105520297

Rotational constants in cm-1:             0.238711             0.042043             0.039148
Rotational constants in MHz :          7156.382222          1260.410788          1173.622063

                             ****ORCA TERMINATED NORMALLY****
TOTAL RUN TIME: 0 days 0 hours 0 minutes 13 seconds 580 msec
