                         Program Version 6.1.0  -  RELEASE   -
|  1> ! B3LYP def2-SVP d3 EnGrad
|  2> %pal nprocs 6 end
|  3> *xyz 0 1
|  4> C   -0.19212759072851 0.74433745524192 0.1865969099088
|  5> C   1.31571703000854 0.95055654890566 0.15064009992389
|  6> C   1.58747307029651 -0.32365749833781 -0.17328330519349
|  7> C   0.12788609163021 -0.75645096327225 -0.18703100516984
|  8> C   -0.91386702222038 0.99510699455757 1.50447609138541
|  9> C   -0.446191481006 -1.28866856779573 -1.49439061850855
| 10> H   -0.71890614711967 1.26056062766868 -0.63744287861974
| 11> H   1.93908264360505 1.83024831801764 0.33929529704134
| 12> H   2.51441608158343 -0.87096601016983 -0.37167883912958
| 13> H   -0.12787050401332 -1.44035177526183 0.64353920486795
| 14> H   -0.41206508482312 0.46897793672418 2.3337456110331
| 15> H   -1.95859914276024 0.64459368793757 1.45948910961203
| 16> H   -0.93225231905515 2.06991581996369 1.75133682695329
| 17> H   -0.02706166363781 -2.27901169187869 -1.73951876486321
| 18> H   -0.21338787906346 -0.60961874125518 -2.33146537537153
| 19> H   -1.54225908269611 -1.39555914104559 -1.4343083538699
| 20> *
| 21>
| 22>                          ****END OF INPUT****

CARTESIAN COORDINATES (ANGSTROEM)
---------------------------------
  C     -0.192128    0.744337    0.186597
  C      1.315717    0.950557    0.150640
  C      1.587473   -0.323657   -0.173283
  C      0.127886   -0.756451   -0.187031
  C     -0.913867    0.995107    1.504476
  C     -0.446191   -1.288669   -1.494391
  H     -0.718906    1.260561   -0.637443
  H      1.939083    1.830248    0.339295
  H      2.514416   -0.870966   -0.371679
  H     -0.127871   -1.440352    0.643539
  H     -0.412065    0.468978    2.333746
  H     -1.958599    0.644594    1.459489
  H     -0.932252    2.069916    1.751337
  H     -0.027062   -2.279012   -1.739519
  H     -0.213388   -0.609619   -2.331465
  H     -1.542259   -1.395559   -1.434308

 Total Charge           Charge          ....    0
 Multiplicity           Mult            ....    1
 Number of Electrons    NEL             ....   46
 Basis Dimension        Dim             ....  134

ORBITAL ENERGIES
----------------

  NO   OCC          E(Eh)            E(eV)
   0   2.0000     -10.185319      -277.1566
   1   2.0000     -10.185312      -277.1564
   2   2.0000     -10.178595      -276.9736
   3   2.0000     -10.177932      -276.9556
   4   2.0000     -10.174849      -276.8717
   5   2.0000     -10.174832      -276.8712
   6   2.0000      -0.851645       -23.1744
   7   2.0000      -0.718610       -19.5544
   8   2.0000      -0.706415       -19.2225
   9   2.0000      -0.595750       -16.2112
  10   2.0000      -0.591735       -16.1019
  11   2.0000      -0.502245       -13.6668
  12   2.0000      -0.481795       -13.1103
  13   2.0000      -0.439067       -11.9476
  14   2.0000      -0.427959       -11.6454
  15   2.0000      -0.401957       -10.9378
  16   2.0000      -0.393055       -10.6956
  17   2.0000      -0.368619       -10.0306
  18   2.0000      -0.351752        -9.5716
  19   2.0000      -0.336035        -9.1440
  20   2.0000      -0.299283        -8.1439
  21   2.0000      -0.297240        -8.0883
  22   2.0000      -0.247116        -6.7244
  23   0.0000       0.013527         0.3681
  24   0.0000       0.073022         1.9870
  25   0.0000       0.088217         2.4005
  26   0.0000       0.097863         2.6630
  27   0.0000       0.105468         2.8699

MULLIKEN ATOMIC CHARGES
-----------------------
   0 C :   -0.028558
   1 C :   -0.039127
   2 C :   -0.038619
   3 C :   -0.030513
   4 C :    0.068530
   5 C :    0.069340
   6 H :   -0.003605
   7 H :   -0.019197
   8 H :   -0.019186
   9 H :   -0.003535
  10 H :    0.005286
  11 H :    0.009065
  12 H :    0.007945
  13 H :    0.007840
  14 H :    0.005196
  15 H :    0.009138
Sum of atomic charges:   -0.0000000

LOEWDIN ATOMIC CHARGES
----------------------
   0 C :   -0.018153
   1 C :   -0.024130
   2 C :   -0.024072
   3 C :   -0.018250
   4 C :   -0.052115
   5 C :   -0.052113
   6 H :    0.017714
   7 H :    0.009560
   8 H :    0.009521
   9 H :    0.017734
  10 H :    0.021468
  11 H :    0.022797
  12 H :    0.022882
  13 H :    0.022906
  14 H :    0.021439
  15 H :    0.022811

  Mayer bond orders larger than 0.100000
B(  0-C ,  1-C ) :   0.9998 B(  0-C ,  3-C ) :   1.0241 B(  0-C ,  4-C ) :   1.0568
B(  0-C ,  6-H ) :   0.8970 B(  1-C ,  2-C ) :   1.7813 B(  1-C ,  7-H ) :   1.0276
B(  2-C ,  3-C ) :   1.0000 B(  2-C ,  8-H ) :   1.0275 B(  3-C ,  5-C ) :   1.0575
B(  3-C ,  9-H ) :   0.8969 B(  4-C , 10-H ) :   0.9618 B(  4-C , 11-H ) :   0.9642
B(  4-C , 12-H ) :   0.9633 B(  5-C , 13-H ) :   0.9631 B(  5-C , 14-H ) :   0.9617
B(  5-C , 15-H ) :   0.9642

Dispersion correction           -0.021646494
FINAL SINGLE POINT ENERGY      -234.291322265718
Dispersion correction             ... done (  0.0 sec)

DIPOLE MOMENT
-------------

Method             : SCF
Type of density    : Electron Density
Multiplicity       :   1
Irrep              :   0
Energy             :  -234.2696757717638718 Eh
Basis              : AO
                                X                 Y                 Z
Electronic contribution:      3.170597447       0.688439842      -0.027277808
Nuclear contribution   :     -3.245895793      -0.705015384       0.028514622
                        -----------------------------------------
Total Dipole Moment    :     -0.075298346      -0.016575541       0.001236814
                        -----------------------------------------
Magnitude (a.u.)       :      0.077111083
Magnitude (Debye)      :      0.196000797

Rotational constants in cm-1:             0.175049             0.108552             0.077508
Rotational constants in MHz :          5247.834774          3254.298590          2323.645928

                             ****ORCA TERMINATED NORMALLY****
TOTAL RUN TIME: 0 days 0 hours 0 minutes 17 seconds 691 msec
