                         Program Version 6.1.0  -  RELEASE   -
|  1> ! B3LYP def2-SVP d3 EnGrad
|  2> %pal nprocs 6 end
|  3> *xyz 0 1
|  4> H   -0.34135979210566 2.49047300495253 -0.8276354678384
|  5> C   -0.57984443446667 1.46373434799905 -0.53277071160413
|  6> C   0.39281393085345 0.60930630063004 -0.03636229701344
|  7> H   -1.61690305538132 1.12409054475143 -0.57020988218849
|  8> H   -0.15580979233876 -0.09297893350629 -0.90103818075432
|  9> O   1.59454538478652 0.660759115949 0.22545069951143
| 10> H   1.62846214253101 -1.00829587056467 0.69728470296686
| 11> O   0.95296305214564 -1.73804512049501 0.61024771275112
| 12> C   -0.20826072109836 -1.08884945336835 0.39082278320105
| 13> H   -0.8060705976625 -0.80535971420549 1.27769034823432
| 14> H   -0.86053611726334 -1.61483422214223 -0.33347970726602
| 15> *
| 16>
| 17>                          ****END OF INPUT****

CARTESIAN COORDINATES (ANGSTROEM)
---------------------------------
  H     -0.341360    2.490473   -0.827635
  C     -0.579844    1.463734   -0.532771
  C      0.392814    0.609306   -0.036362
  H     -1.616903    1.124091   -0.570210
  H     -0.155810   -0.092979   -0.901038
  O      1.594545    0.660759    0.225451
  H      1.628462   -1.008296    0.697285
  O      0.952963   -1.738045    0.610248
  C     -0.208261   -1.088849    0.390823
  H     -0.806071   -0.805360    1.277690
  H     -0.860536   -1.614834   -0.333480

 Total Charge           Charge          ....    0
 Multiplicity           Mult            ....    1
 Number of Electrons    NEL             ....   40
 Basis Dimension        Dim             ....  100

ORBITAL ENERGIES
----------------

  NO   OCC          E(Eh)            E(eV)
   0   2.0000     -19.138170      -520.7761
   1   2.0000     -19.115431      -520.1573
   2   2.0000     -10.287620      -279.9404
   3   2.0000     -10.278001      -279.6786
   4   2.0000     -10.219573      -278.0887
   5   2.0000      -1.051164       -28.6036
   6   2.0000      -1.007771       -27.4228
   7   2.0000      -0.798776       -21.7358
   8   2.0000      -0.681168       -18.5355
   9   2.0000      -0.579104       -15.7582
  10   2.0000      -0.526298       -14.3213
  11   2.0000      -0.500832       -13.6283
  12   2.0000      -0.472977       -12.8704
  13   2.0000      -0.452651       -12.3173
  14   2.0000      -0.426983       -11.6188
  15   2.0000      -0.406313       -11.0563
  16   2.0000      -0.345041        -9.3891
  17   2.0000      -0.300017        -8.1639
  18   2.0000      -0.281704        -7.6655
  19   2.0000      -0.238429        -6.4880
  20   0.0000      -0.043227        -1.1763
  21   0.0000       0.039162         1.0657
  22   0.0000       0.048909         1.3309
  23   0.0000       0.085311         2.3214
  24   0.0000       0.099179         2.6988

MULLIKEN ATOMIC CHARGES
-----------------------
   0 H :    0.054910
   1 C :   -0.119337
   2 C :    0.096056
   3 H :    0.041659
   4 H :    0.121618
   5 O :   -0.299262
   6 H :    0.187840
   7 O :   -0.266884
   8 C :    0.095074
   9 H :    0.047463
  10 H :    0.040865
Sum of atomic charges:    0.0000000

LOEWDIN ATOMIC CHARGES
----------------------
   0 H :    0.038284
   1 C :   -0.087943
   2 C :    0.012345
   3 H :    0.034157
   4 H :    0.159938
   5 O :   -0.238794
   6 H :    0.068109
   7 O :   -0.110562
   8 C :    0.080245
   9 H :    0.022139
  10 H :    0.022082

  Mayer bond orders larger than 0.100000
B(  0-H ,  1-C ) :   0.9409 B(  1-C ,  2-C ) :   1.3469 B(  1-C ,  3-H ) :   0.9444
B(  1-C ,  4-H ) :   0.3100 B(  1-C ,  5-O ) :   0.1639 B(  2-C ,  4-H ) :   0.4273
B(  2-C ,  5-O ) :   1.7833 B(  2-C ,  8-C ) :   0.5395 B(  4-H ,  8-C ) :   0.1992
B(  5-O ,  6-H ) :   0.1573 B(  6-H ,  7-O ) :   0.8822 B(  7-O ,  8-C ) :   1.1975
B(  8-C ,  9-H ) :   0.9043 B(  8-C , 10-H ) :   0.9271

Dispersion correction           -0.012126817
FINAL SINGLE POINT ENERGY      -267.897307667383
Dispersion correction             ... done (  0.1 sec)

DIPOLE MOMENT
-------------

Method             : SCF
Type of density    : Electron Density
Multiplicity       :   1
Irrep              :   0
Energy             :  -267.8851808500497782 Eh
Basis              : AO
                                X                 Y                 Z
Electronic contribution:      3.286859027      -0.329691476       1.051406411
Nuclear contribution   :     -4.566427095       0.477824498      -1.411487254
                        -----------------------------------------
Total Dipole Moment    :     -1.279568068       0.148133022      -0.360080843
                        -----------------------------------------
Magnitude (a.u.)       :      1.337496185
Magnitude (Debye)      :      3.399645128

Rotational constants in cm-1:             0.315819             0.131523             0.095723
Rotational constants in MHz :          9468.027670          3942.964944          2869.694487

                             ****ORCA TERMINATED NORMALLY****
TOTAL RUN TIME: 0 days 0 hours 0 minutes 12 seconds 457 msec
