                         Program Version 6.1.0  -  RELEASE   -
|  1> ! B3LYP def2-SVP d3 EnGrad
|  2> %pal nprocs 6 end
|  3> *xyz 0 1
|  4> C   -0.90853070887193 -1.53322722668642 0.34064503027162
|  5> C   -1.47201010430542 -0.6530371509181 -0.50165371614629
|  6> C   -1.72181360368268 0.76937616890576 -0.22652686739674
|  7> C   -1.02139141734611 1.54272343775978 0.61759145573713
|  8> C   2.62936824170063 -0.48963630254694 0.28612465468757
|  9> C   2.20315793537973 0.39787981775667 -0.61301461545885
| 10> H   -1.80104809058193 -1.01066632496972 -1.48529741240964
| 11> H   -0.60828974895407 -1.24710692657164 1.35295063085177
| 12> H   -0.74288781537947 -2.57302405968268 0.04697082544054
| 13> H   3.61192089025297 -0.40668800134976 0.76215086148673
| 14> H   2.00677896505466 -1.33963288766188 0.58318828846557
| 15> H   1.21653506308601 0.30887308882533 -1.07628877131879
| 16> H   2.81903129989267 1.2511400172558 -0.91581631925057
| 17> H   -1.28577116141739 2.59190791389249 0.77400099653598
| 18> H   -0.15090004071264 1.1614699792277 1.15920819427206
| 19> H   -2.54714370411507 1.22247845676359 -0.78980623576806
| 20> *
| 21>
| 22>                          ****END OF INPUT****

CARTESIAN COORDINATES (ANGSTROEM)
---------------------------------
  C     -0.908531   -1.533227    0.340645
  C     -1.472010   -0.653037   -0.501654
  C     -1.721814    0.769376   -0.226527
  C     -1.021391    1.542723    0.617591
  C      2.629368   -0.489636    0.286125
  C      2.203158    0.397880   -0.613015
  H     -1.801048   -1.010666   -1.485297
  H     -0.608290   -1.247107    1.352951
  H     -0.742888   -2.573024    0.046971
  H      3.611921   -0.406688    0.762151
  H      2.006779   -1.339633    0.583188
  H      1.216535    0.308873   -1.076289
  H      2.819031    1.251140   -0.915816
  H     -1.285771    2.591908    0.774001
  H     -0.150900    1.161470    1.159208
  H     -2.547144    1.222478   -0.789806

 Total Charge           Charge          ....    0
 Multiplicity           Mult            ....    1
 Number of Electrons    NEL             ....   46
 Basis Dimension        Dim             ....  134

ORBITAL ENERGIES
----------------

  NO   OCC          E(Eh)            E(eV)
   0   2.0000     -10.194002      -277.3929
   1   2.0000     -10.192130      -277.3420
   2   2.0000     -10.186815      -277.1973
   3   2.0000     -10.184687      -277.1394
   4   2.0000     -10.181877      -277.0630
   5   2.0000     -10.180677      -277.0303
   6   2.0000      -0.794423       -21.6173
   7   2.0000      -0.743262       -20.2252
   8   2.0000      -0.718231       -19.5441
   9   2.0000      -0.610794       -16.6206
  10   2.0000      -0.563633       -15.3372
  11   2.0000      -0.521345       -14.1865
  12   2.0000      -0.487520       -13.2661
  13   2.0000      -0.459468       -12.5028
  14   2.0000      -0.436643       -11.8817
  15   2.0000      -0.421264       -11.4632
  16   2.0000      -0.412130       -11.2146
  17   2.0000      -0.365745        -9.9524
  18   2.0000      -0.348317        -9.4782
  19   2.0000      -0.347303        -9.4506
  20   2.0000      -0.313735        -8.5372
  21   2.0000      -0.267753        -7.2859
  22   2.0000      -0.237400        -6.4600
  23   0.0000      -0.035341        -0.9617
  24   0.0000       0.012462         0.3391
  25   0.0000       0.063275         1.7218
  26   0.0000       0.074147         2.0176
  27   0.0000       0.087140         2.3712

MULLIKEN ATOMIC CHARGES
-----------------------
   0 C :   -0.019312
   1 C :   -0.026159
   2 C :   -0.024111
   3 C :   -0.026063
   4 C :   -0.065881
   5 C :   -0.055077
   6 H :    0.001050
   7 H :    0.025056
   8 H :    0.024476
   9 H :    0.024116
  10 H :    0.025005
  11 H :    0.041801
  12 H :    0.023667
  13 H :    0.023397
  14 H :    0.028529
  15 H :   -0.000493
Sum of atomic charges:   -0.0000000

LOEWDIN ATOMIC CHARGES
----------------------
   0 C :   -0.039557
   1 C :   -0.035274
   2 C :   -0.038035
   3 C :   -0.036573
   4 C :   -0.053819
   5 C :   -0.043000
   6 H :    0.028065
   7 H :    0.023123
   8 H :    0.025491
   9 H :    0.022056
  10 H :    0.021306
  11 H :    0.026901
  12 H :    0.022669
  13 H :    0.025245
  14 H :    0.023942
  15 H :    0.027461

  Mayer bond orders larger than 0.100000
B(  0-C ,  1-C ) :   1.9559 B(  0-C ,  7-H ) :   0.9463 B(  0-C ,  8-H ) :   0.9470
B(  1-C ,  2-C ) :   1.0801 B(  1-C ,  6-H ) :   0.9547 B(  2-C ,  3-C ) :   1.9552
B(  2-C , 15-H ) :   0.9560 B(  3-C , 13-H ) :   0.9490 B(  3-C , 14-H ) :   0.9480
B(  4-C ,  5-C ) :   2.0738 B(  4-C ,  9-H ) :   0.9606 B(  4-C , 10-H ) :   0.9554
B(  5-C , 11-H ) :   0.9546 B(  5-C , 12-H ) :   0.9613

Dispersion correction           -0.019608326
FINAL SINGLE POINT ENERGY      -234.259346179294
Dispersion correction             ... done (  0.1 sec)

DIPOLE MOMENT
-------------

Method             : SCF
Type of density    : Electron Density
Multiplicity       :   1
Irrep              :   0
Energy             :  -234.2397378528769423 Eh
Basis              : AO
                                X                 Y                 Z
Electronic contribution:     -2.539103897       0.098868207      -0.505158233
Nuclear contribution   :      2.472119220      -0.080697722       0.471323017
                        -----------------------------------------
Total Dipole Moment    :     -0.066984677       0.018170485      -0.033835215
                        -----------------------------------------
Magnitude (a.u.)       :      0.077213569
Magnitude (Debye)      :      0.196261295

Rotational constants in cm-1:             0.140561             0.058060             0.046697
Rotational constants in MHz :          4213.912621          1740.591295          1399.929434

                             ****ORCA TERMINATED NORMALLY****
TOTAL RUN TIME: 0 days 0 hours 0 minutes 16 seconds 477 msec
