                         Program Version 6.1.0  -  RELEASE   -
|  1> ! B3LYP def2-SVP d3 EnGrad
|  2> %pal nprocs 6 end
|  3> *xyz 0 1
|  4> C   1.97822442788576 -0.0369775454578 0.47251527596911
|  5> C   0.83943610797995 0.52046699268825 -0.39555881338549
|  6> H   2.95768481753331 0.28999473525443 0.09025529947565
|  7> H   1.97794995065923 -1.13906818825213 0.48907606109564
|  8> H   1.88296946769249 0.31749281762275 1.51077935494941
|  9> C   -0.52179260650887 0.10618340492983 0.15035560138983
| 10> O   -1.14671847258435 0.82385877106619 0.89939620126606
| 11> C   -1.03866163648064 -1.25630046229058 -0.27248493701016
| 12> H   -1.3184823896196 -1.2219823001839 -1.33973128617111
| 13> H   -1.92015541305507 -1.52492529411639 0.3246253320323
| 14> H   -0.25970491823142 -2.02959070798133 -0.17195607808674
| 15> H   0.87205847130308 1.62066341891435 -0.39644345778167
| 16> H   0.95272019342615 0.16621035780636 -1.43450055374284
| 17> *
| 18>
| 19>                          ****END OF INPUT****

CARTESIAN COORDINATES (ANGSTROEM)
---------------------------------
  C      1.978224   -0.036978    0.472515
  C      0.839436    0.520467   -0.395559
  H      2.957685    0.289995    0.090255
  H      1.977950   -1.139068    0.489076
  H      1.882969    0.317493    1.510779
  C     -0.521793    0.106183    0.150356
  O     -1.146718    0.823859    0.899396
  C     -1.038662   -1.256300   -0.272485
  H     -1.318482   -1.221982   -1.339731
  H     -1.920155   -1.524925    0.324625
  H     -0.259705   -2.029591   -0.171956
  H      0.872058    1.620663   -0.396443
  H      0.952720    0.166210   -1.434501

 Total Charge           Charge          ....    0
 Multiplicity           Mult            ....    1
 Number of Electrons    NEL             ....   40
 Basis Dimension        Dim             ....  110

ORBITAL ENERGIES
----------------

  NO   OCC          E(Eh)            E(eV)
   0   2.0000     -19.116818      -520.1951
   1   2.0000     -10.267708      -279.3985
   2   2.0000     -10.192631      -277.3556
   3   2.0000     -10.191938      -277.3367
   4   2.0000     -10.190744      -277.3042
   5   2.0000      -1.024523       -27.8787
   6   2.0000      -0.780439       -21.2368
   7   2.0000      -0.724102       -19.7038
   8   2.0000      -0.636527       -17.3208
   9   2.0000      -0.520745       -14.1702
  10   2.0000      -0.469406       -12.7732
  11   2.0000      -0.459597       -12.5063
  12   2.0000      -0.443570       -12.0702
  13   2.0000      -0.414776       -11.2866
  14   2.0000      -0.402598       -10.9553
  15   2.0000      -0.386622       -10.5205
  16   2.0000      -0.369593       -10.0571
  17   2.0000      -0.351879        -9.5751
  18   2.0000      -0.342707        -9.3255
  19   2.0000      -0.242796        -6.6068
  20   0.0000      -0.013464        -0.3664
  21   0.0000       0.049867         1.3570
  22   0.0000       0.087656         2.3853
  23   0.0000       0.100766         2.7420
  24   0.0000       0.115777         3.1505

MULLIKEN ATOMIC CHARGES
-----------------------
   0 C :   -0.016013
   1 C :    0.032231
   2 H :    0.025138
   3 H :    0.014176
   4 H :    0.029150
   5 C :   -0.035058
   6 O :   -0.200916
   7 C :    0.038420
   8 H :    0.035240
   9 H :    0.031154
  10 H :    0.024336
  11 H :    0.017509
  12 H :    0.004633
Sum of atomic charges:    0.0000000

LOEWDIN ATOMIC CHARGES
----------------------
   0 C :   -0.045515
   1 C :   -0.059858
   2 H :    0.028613
   3 H :    0.021071
   4 H :    0.029219
   5 C :    0.081418
   6 O :   -0.149553
   7 C :   -0.079185
   8 H :    0.044380
   9 H :    0.035633
  10 H :    0.035304
  11 H :    0.033374
  12 H :    0.025098

  Mayer bond orders larger than 0.100000
B(  0-C ,  1-C ) :   1.0949 B(  0-C ,  2-H ) :   0.9675 B(  0-C ,  3-H ) :   0.9708
B(  0-C ,  4-H ) :   0.9692 B(  1-C ,  5-C ) :   0.9756 B(  1-C , 11-H ) :   0.9265
B(  1-C , 12-H ) :   0.9340 B(  5-C ,  6-O ) :   2.1732 B(  5-C ,  7-C ) :   1.0178
B(  7-C ,  8-H ) :   0.9417 B(  7-C ,  9-H ) :   0.9546 B(  7-C , 10-H ) :   0.9511

Dispersion correction           -0.014949987
FINAL SINGLE POINT ENERGY      -232.165502434549
Dispersion correction             ... done (  0.1 sec)

DIPOLE MOMENT
-------------

Method             : SCF
Type of density    : Electron Density
Multiplicity       :   1
Irrep              :   0
Energy             :  -232.1505524475579705 Eh
Basis              : AO
                                X                 Y                 Z
Electronic contribution:     -3.988157141       2.832914832       1.572323718
Nuclear contribution   :      4.607652933      -3.460768599      -2.203802556
                        -----------------------------------------
Total Dipole Moment    :      0.619495792      -0.627853767      -0.631478838
                        -----------------------------------------
Magnitude (a.u.)       :      1.084776895
Magnitude (Debye)      :      2.757283743

Rotational constants in cm-1:             0.251619             0.126160             0.099910
Rotational constants in MHz :          7543.349172          3782.173392          2995.239481

                             ****ORCA TERMINATED NORMALLY****
TOTAL RUN TIME: 0 days 0 hours 0 minutes 13 seconds 726 msec
