                         Program Version 6.1.0  -  RELEASE   -
|  1> ! B3LYP def2-SVP d3 EnGrad
|  2> %pal nprocs 6 end
|  3> *xyz 0 1
|  4> C   0.43984526338887 -0.27242119743733 0.49529430191252
|  5> C   0.81677261373795 0.84582437607161 -0.26532582497628
|  6> C   2.15410889258183 1.00202667629136 -0.65064736497067
|  7> C   3.12009162911661 0.06146880442547 -0.29368377012263
|  8> C   2.73726854571396 -1.05361110213761 0.46376564975035
|  9> C   1.41205199939679 -1.22229020373155 0.85511677236912
| 10> O   -0.82110214680531 -0.52426425530194 0.93652599102097
| 11> C   -1.88432268668562 0.36249602397224 0.61412083934125
| 12> C   -2.41069378982279 0.15637031725682 -0.77925049670876
| 13> C   -3.69569753581193 -0.0670961652375 -1.063022637247
| 14> H   0.08606941455709 1.59600192720704 -0.56714705218398
| 15> H   2.43529152728376 1.87659464913088 -1.2433855685484
| 16> H   4.15987077482084 0.19103496732651 -0.60193645512886
| 17> H   3.48098580300219 -1.80054788251488 0.75344674442586
| 18> H   1.09485325968639 -2.08372732974562 1.44619618212113
| 19> H   -2.67450144276576 0.15591193253158 1.35114029937175
| 20> H   -1.67376398534211 0.20469445141125 -1.5894734323267
| 21> H   -4.04272199977965 -0.19116893763104 -2.09271677976143
| 22> H   -4.45373322474285 -0.13068693531032 -0.27435098087541
| 23> H   -1.56070991153026 1.41011588342302 0.7637305825372
| 24> *
| 25>
| 26>                          ****END OF INPUT****

CARTESIAN COORDINATES (ANGSTROEM)
---------------------------------
  C      0.439845   -0.272421    0.495294
  C      0.816773    0.845824   -0.265326
  C      2.154109    1.002027   -0.650647
  C      3.120092    0.061469   -0.293684
  C      2.737269   -1.053611    0.463766
  C      1.412052   -1.222290    0.855117
  O     -0.821102   -0.524264    0.936526
  C     -1.884323    0.362496    0.614121
  C     -2.410694    0.156370   -0.779250
  C     -3.695698   -0.067096   -1.063023
  H      0.086069    1.596002   -0.567147
  H      2.435292    1.876595   -1.243386
  H      4.159871    0.191035   -0.601936
  H      3.480986   -1.800548    0.753447
  H      1.094853   -2.083727    1.446196
  H     -2.674501    0.155912    1.351140
  H     -1.673764    0.204694   -1.589473
  H     -4.042722   -0.191169   -2.092717
  H     -4.453733   -0.130687   -0.274351
  H     -1.560710    1.410116    0.763731

 Total Charge           Charge          ....    0
 Multiplicity           Mult            ....    1
 Number of Electrons    NEL             ....   72
 Basis Dimension        Dim             ....  190

ORBITAL ENERGIES
----------------

  NO   OCC          E(Eh)            E(eV)
   0   2.0000     -19.159124      -521.3463
   1   2.0000     -10.247570      -278.8506
   2   2.0000     -10.245010      -278.7809
   3   2.0000     -10.196210      -277.4530
   4   2.0000     -10.192923      -277.3635
   5   2.0000     -10.188402      -277.2405
   6   2.0000     -10.186921      -277.2002
   7   2.0000     -10.184832      -277.1434
   8   2.0000     -10.179916      -277.0096
   9   2.0000     -10.179229      -276.9909
  10   2.0000      -1.054031       -28.6816
  11   2.0000      -0.840222       -22.8636
  12   2.0000      -0.788769       -21.4635
  13   2.0000      -0.737025       -20.0555
  14   2.0000      -0.732850       -19.9419
  15   2.0000      -0.679501       -18.4902
  16   2.0000      -0.601783       -16.3753
  17   2.0000      -0.592087       -16.1115
  18   2.0000      -0.563130       -15.3235
  19   2.0000      -0.529851       -14.4180
  20   2.0000      -0.493296       -13.4233
  21   2.0000      -0.479414       -13.0455
  22   2.0000      -0.467865       -12.7312
  23   2.0000      -0.449889       -12.2421
  24   2.0000      -0.436040       -11.8653
  25   2.0000      -0.417390       -11.3578
  26   2.0000      -0.406587       -11.0638
  27   2.0000      -0.388444       -10.5701
  28   2.0000      -0.368373       -10.0239
  29   2.0000      -0.363929        -9.9030
  30   2.0000      -0.353214        -9.6114
  31   2.0000      -0.326844        -8.8939
  32   2.0000      -0.319392        -8.6911
  33   2.0000      -0.273659        -7.4466
  34   2.0000      -0.252473        -6.8701
  35   2.0000      -0.219730        -5.9792
  36   0.0000      -0.007290        -0.1984
  37   0.0000      -0.002209        -0.0601
  38   0.0000       0.009460         0.2574
  39   0.0000       0.063807         1.7363
  40   0.0000       0.080745         2.1972

MULLIKEN ATOMIC CHARGES
-----------------------
   0 C :    0.216689
   1 C :   -0.078142
   2 C :    0.015959
   3 C :    0.019502
   4 C :    0.017586
   5 C :   -0.013080
   6 O :   -0.315188
   7 C :    0.273756
   8 C :   -0.099968
   9 C :   -0.025854
  10 H :   -0.026171
  11 H :   -0.018753
  12 H :   -0.022595
  13 H :   -0.016132
  14 H :   -0.022347
  15 H :    0.008529
  16 H :    0.020404
  17 H :    0.027996
  18 H :    0.018187
  19 H :    0.019621
Sum of atomic charges:   -0.0000000

LOEWDIN ATOMIC CHARGES
----------------------
   0 C :    0.054992
   1 C :   -0.081959
   2 C :   -0.016210
   3 C :   -0.051270
   4 C :   -0.016161
   5 C :   -0.048106
   6 O :   -0.098501
   7 C :    0.087602
   8 C :   -0.044432
   9 C :   -0.043569
  10 H :    0.024069
  11 H :    0.026582
  12 H :    0.024547
  13 H :    0.027555
  14 H :    0.030382
  15 H :    0.027653
  16 H :    0.028500
  17 H :    0.027312
  18 H :    0.022709
  19 H :    0.018308

  Mayer bond orders larger than 0.100000
B(  0-C ,  1-C ) :   1.3175 B(  0-C ,  5-C ) :   1.3595 B(  0-C ,  6-O ) :   1.1193
B(  1-C ,  2-C ) :   1.3636 B(  1-C , 10-H ) :   0.9848 B(  2-C ,  3-C ) :   1.4013
B(  2-C , 11-H ) :   0.9794 B(  3-C ,  4-C ) :   1.3564 B(  3-C , 12-H ) :   0.9875
B(  4-C ,  5-C ) :   1.4004 B(  4-C , 13-H ) :   0.9826 B(  5-C , 14-H ) :   0.9870
B(  6-O ,  7-C ) :   0.9372 B(  7-C ,  8-C ) :   1.0425 B(  7-C , 15-H ) :   0.9457
B(  7-C , 19-H ) :   0.9253 B(  8-C ,  9-C ) :   2.0204 B(  8-C , 16-H ) :   0.9531
B(  9-C , 17-H ) :   0.9513 B(  9-C , 18-H ) :   0.9534

Dispersion correction           -0.033789356
FINAL SINGLE POINT ENERGY      -423.627860702984
Dispersion correction             ... done (  0.1 sec)

DIPOLE MOMENT
-------------

Method             : SCF
Type of density    : Electron Density
Multiplicity       :   1
Irrep              :   0
Energy             :  -423.5940713466845864 Eh
Basis              : AO
                                X                 Y                 Z
Electronic contribution:      3.757126736      -1.449835851       2.111220044
Nuclear contribution   :     -4.085810919       1.802718138      -2.293341740
                        -----------------------------------------
Total Dipole Moment    :     -0.328684183       0.352882287      -0.182121696
                        -----------------------------------------
Magnitude (a.u.)       :      0.515487646
Magnitude (Debye)      :      1.310265467

Rotational constants in cm-1:             0.117519             0.023890             0.021451
Rotational constants in MHz :          3523.119563           716.209774           643.098475

                             ****ORCA TERMINATED NORMALLY****
TOTAL RUN TIME: 0 days 0 hours 0 minutes 32 seconds 716 msec
