                         Program Version 6.1.0  -  RELEASE   -
|  1> ! B3LYP def2-SVP d3 EnGrad
|  2> %pal nprocs 6 end
|  3> *xyz 0 1
|  4> N   1.78482810304745 -0.04074882758445 0.08372689920237
|  5> B   1.62991128732295 1.30148067056635 -0.22710853045713
|  6> N   -1.79651304180103 0.0389687447678 0.14435153655321
|  7> B   -1.64750315936604 -1.32122593371378 -0.07868599978424
|  8> H   -2.63130392692723 0.44178692695567 0.55595173535664
|  9> H   2.52875191485863 2.07977634551921 -0.01725219085205
| 10> H   -2.53214817750957 -2.08518867802442 0.22335466192037
| 11> H   1.06367831812946 -0.73960970486919 -0.07089572919106
| 12> H   2.63567624735587 -0.41874900139961 0.48587050841124
| 13> H   -1.08640551983332 0.72730131117018 -0.08869466181654
| 14> H   0.58430115106205 1.67816409001287 -0.7103112527549
| 15> H   -0.62133619633921 -1.72787194340063 -0.57895697658791
| 16> *
| 17>
| 18>                          ****END OF INPUT****

CARTESIAN COORDINATES (ANGSTROEM)
---------------------------------
  N      1.784828   -0.040749    0.083727
  B      1.629911    1.301481   -0.227109
  N     -1.796513    0.038969    0.144352
  B     -1.647503   -1.321226   -0.078686
  H     -2.631304    0.441787    0.555952
  H      2.528752    2.079776   -0.017252
  H     -2.532148   -2.085189    0.223355
  H      1.063678   -0.739610   -0.070896
  H      2.635676   -0.418749    0.485871
  H     -1.086406    0.727301   -0.088695
  H      0.584301    1.678164   -0.710311
  H     -0.621336   -1.727872   -0.578957

 Total Charge           Charge          ....    0
 Multiplicity           Mult            ....    1
 Number of Electrons    NEL             ....   32
 Basis Dimension        Dim             ....   96

ORBITAL ENERGIES
----------------

  NO   OCC          E(Eh)            E(eV)
   0   2.0000     -14.330779      -389.9603
   1   2.0000     -14.330651      -389.9569
   2   2.0000      -6.746764      -183.5888
   3   2.0000      -6.746716      -183.5875
   4   2.0000      -0.858305       -23.3557
   5   2.0000      -0.854375       -23.2487
   6   2.0000      -0.526532       -14.3277
   7   2.0000      -0.523144       -14.2355
   8   2.0000      -0.513981       -13.9861
   9   2.0000      -0.501396       -13.6437
  10   2.0000      -0.396863       -10.7992
  11   2.0000      -0.388093       -10.5605
  12   2.0000      -0.327018        -8.8986
  13   2.0000      -0.311371        -8.4728
  14   2.0000      -0.305846        -8.3225
  15   2.0000      -0.299207        -8.1418
  16   0.0000       0.005518         0.1501
  17   0.0000       0.010500         0.2857
  18   0.0000       0.054010         1.4697
  19   0.0000       0.072740         1.9794
  20   0.0000       0.107242         2.9182

MULLIKEN ATOMIC CHARGES
-----------------------
   0 N :   -0.054063
   1 B :   -0.068834
   2 N :   -0.054355
   3 B :   -0.068191
   4 H :    0.121642
   5 H :   -0.042101
   6 H :   -0.042173
   7 H :    0.105606
   8 H :    0.121578
   9 H :    0.106022
  10 H :   -0.062442
  11 H :   -0.062688
Sum of atomic charges:    0.0000000

LOEWDIN ATOMIC CHARGES
----------------------
   0 N :    0.066068
   1 B :   -0.132501
   2 N :    0.066082
   3 B :   -0.132535
   4 H :    0.084262
   5 H :   -0.044686
   6 H :   -0.044705
   7 H :    0.079743
   8 H :    0.084235
   9 H :    0.079832
  10 H :   -0.052955
  11 H :   -0.052840

  Mayer bond orders larger than 0.100000
B(  0-N ,  1-B ) :   1.6364 B(  0-N ,  7-H ) :   0.9437 B(  0-N ,  8-H ) :   0.9563
B(  1-B ,  5-H ) :   0.9659 B(  1-B , 10-H ) :   0.9363 B(  2-N ,  3-B ) :   1.6364
B(  2-N ,  4-H ) :   0.9562 B(  2-N ,  9-H ) :   0.9437 B(  3-B ,  6-H ) :   0.9659
B(  3-B , 11-H ) :   0.9360

Dispersion correction           -0.010258661
FINAL SINGLE POINT ENERGY      -163.864153836402
Dispersion correction             ... done (  0.1 sec)

DIPOLE MOMENT
-------------

Method             : SCF
Type of density    : Electron Density
Multiplicity       :   1
Irrep              :   0
Energy             :  -163.8538951749508783 Eh
Basis              : AO
                                X                 Y                 Z
Electronic contribution:      0.002347211       0.008557878       0.267937385
Nuclear contribution   :      0.001072622       0.002735081       0.076544021
                        -----------------------------------------
Total Dipole Moment    :      0.003419833       0.011292958       0.344481406
                        -----------------------------------------
Magnitude (a.u.)       :      0.344683428
Magnitude (Debye)      :      0.876115648

Rotational constants in cm-1:             0.469519             0.084301             0.072884
Rotational constants in MHz :         14075.814364          2527.281350          2185.012563

                             ****ORCA TERMINATED NORMALLY****
TOTAL RUN TIME: 0 days 0 hours 0 minutes 9 seconds 145 msec
