                         Program Version 6.1.0  -  RELEASE   -
|  1> ! B3LYP def2-SVP d3 EnGrad
|  2> %pal nprocs 6 end
|  3> *xyz 0 2
|  4> C   -0.0063826232843 0.01222166716137 0.00247973045843
|  5> C   0.00063599799641 -0.00123821763841 1.52302939567603
|  6> H   1.02607534878363 0.01742571100262 -0.38623271170831
|  7> H   -0.52119332577324 -0.88237226221429 -0.38725267845086
|  8> H   -0.53911352690814 0.92709314398298 -0.32039966549755
|  9> C   -1.41488986879953 -0.05847799477684 2.07632674562181
| 10> C   0.75486922518354 1.19794560654695 2.07743169896402
| 11> H   -1.39510023833635 -0.1021836018572 3.17863305218727
| 12> H   -1.94005821616923 0.85702014143628 1.74222714140479
| 13> H   -1.93911612855176 -0.95325600022062 1.69975138949254
| 14> H   0.2206719307183 2.10882836206478 1.74536042960658
| 15> H   0.78503416469435 1.15805569523116 3.17961125596985
| 16> H   1.79151511644282 1.20876148233794 1.70012355109864
| 17> F   0.68485985342788 -1.18388178721246 1.94529666184948
| 18> Cl   -1.76593778942444 3.02891427415572 0.4258906733273
| 19> *
| 20>
| 21>                          ****END OF INPUT****

CARTESIAN COORDINATES (ANGSTROEM)
---------------------------------
  C     -0.006383    0.012222    0.002480
  C      0.000636   -0.001238    1.523029
  H      1.026075    0.017426   -0.386233
  H     -0.521193   -0.882372   -0.387253
  H     -0.539114    0.927093   -0.320400
  C     -1.414890   -0.058478    2.076327
  C      0.754869    1.197946    2.077432
  H     -1.395100   -0.102184    3.178633
  H     -1.940058    0.857020    1.742227
  H     -1.939116   -0.953256    1.699751
  H      0.220672    2.108828    1.745360
  H      0.785034    1.158056    3.179611
  H      1.791515    1.208761    1.700124
  F      0.684860   -1.183882    1.945297
  Cl    -1.765938    3.028914    0.425891

 Total Charge           Charge          ....    0
 Multiplicity           Mult            ....    2
 Number of Electrons    NEL             ....   59
 Basis Dimension        Dim             ....  133

ORBITAL ENERGIES
----------------
                 SPIN UP ORBITALS
  NO   OCC          E(Eh)            E(eV)
   0   1.0000    -101.547794     -2763.2560
   1   1.0000     -24.645131      -670.6281
   2   1.0000     -10.259872      -279.1853
   3   1.0000     -10.185077      -277.1500
   4   1.0000     -10.184996      -277.1478
   5   1.0000     -10.184647      -277.1383
   6   1.0000      -9.498218      -258.4596
   7   1.0000      -7.277112      -198.0203
   8   1.0000      -7.255240      -197.4251
   9   1.0000      -7.255238      -197.4251
  10   1.0000      -1.139230       -31.0000
  11   1.0000      -0.838375       -22.8133
  12   1.0000      -0.801057       -21.7979
  13   1.0000      -0.690757       -18.7965
  14   1.0000      -0.690439       -18.7878
  15   1.0000      -0.558602       -15.2003
  16   1.0000      -0.485811       -13.2196
  17   1.0000      -0.462322       -12.5804
  18   1.0000      -0.462273       -12.5791
  19   1.0000      -0.420343       -11.4381
  20   1.0000      -0.412541       -11.2258
  21   1.0000      -0.412308       -11.2195
  22   1.0000      -0.375405       -10.2153
  23   1.0000      -0.375191       -10.2095
  24   1.0000      -0.372155       -10.1269
  25   1.0000      -0.370955       -10.0942
  26   1.0000      -0.343816        -9.3557
  27   1.0000      -0.343767        -9.3544
  28   1.0000      -0.318309        -8.6616
  29   1.0000      -0.318215        -8.6591
  30   0.0000       0.060630         1.6498
  31   0.0000       0.096578         2.6280
  32   0.0000       0.107758         2.9322
  33   0.0000       0.107840         2.9345
  34   0.0000       0.120943         3.2910

                 SPIN DOWN ORBITALS
  NO   OCC          E(Eh)            E(eV)
   0   1.0000    -101.541322     -2763.0798
   1   1.0000     -24.644861      -670.6208
   2   1.0000     -10.259936      -279.1871
   3   1.0000     -10.184721      -277.1403
   4   1.0000     -10.184639      -277.1381
   5   1.0000     -10.184321      -277.1295
   6   1.0000      -9.492077      -258.2926
   7   1.0000      -7.256484      -197.4590
   8   1.0000      -7.251535      -197.3243
   9   1.0000      -7.251533      -197.3243
  10   1.0000      -1.138570       -30.9821
  11   1.0000      -0.802927       -21.8488
  12   1.0000      -0.785018       -21.3614
  13   1.0000      -0.689611       -18.7653
  14   1.0000      -0.689355       -18.7583
  15   1.0000      -0.557148       -15.1608
  16   1.0000      -0.483926       -13.1683
  17   1.0000      -0.461548       -12.5593
  18   1.0000      -0.461534       -12.5590
  19   1.0000      -0.410919       -11.1817
  20   1.0000      -0.410717       -11.1762
  21   1.0000      -0.396928       -10.8010
  22   1.0000      -0.373890       -10.1741
  23   1.0000      -0.373703       -10.1690
  24   1.0000      -0.370647       -10.0858
  25   1.0000      -0.330433        -8.9915
  26   1.0000      -0.330412        -8.9910
  27   1.0000      -0.316744        -8.6190
  28   1.0000      -0.316699        -8.6178
  29   0.0000      -0.238915        -6.5012
  30   0.0000       0.061923         1.6850
  31   0.0000       0.100383         2.7316
  32   0.0000       0.108077         2.9409
  33   0.0000       0.108158         2.9431

MULLIKEN ATOMIC CHARGES AND SPIN POPULATIONS
--------------------------------------------
   0 C :    0.054813    0.022173
   1 C :    0.012647   -0.004681
   2 H :    0.019873    0.000258
   3 H :    0.019782    0.000232
   4 H :   -0.008384   -0.004965
   5 C :    0.054711    0.022085
   6 C :    0.054257    0.020279
   7 H :    0.019892    0.000267
   8 H :   -0.008568   -0.004960
   9 H :    0.019876    0.000229
  10 H :   -0.007844   -0.004803
  11 H :    0.019550    0.000247
  12 H :    0.019635    0.000238
  13 F :   -0.295872    0.006693
  14 Cl:    0.025633    0.946706
Sum of atomic charges         :    0.0000000

LOEWDIN ATOMIC CHARGES AND SPIN POPULATIONS
-------------------------------------------
   0 C :   -0.052297    0.015892
   1 C :    0.081516   -0.001429
   2 H :    0.028954    0.000472
   3 H :    0.028934    0.000456
   4 H :    0.011368    0.003116
   5 C :   -0.052314    0.015834
   6 C :   -0.052780    0.014484
   7 H :    0.028968    0.000476
   8 H :    0.011432    0.003100
   9 H :    0.028907    0.000451
  10 H :    0.011708    0.002775
  11 H :    0.028767    0.000430
  12 H :    0.028763    0.000425
  13 F :   -0.169277    0.006833
  14 Cl:    0.037351    0.936687

  Mayer bond orders larger than 0.100000
B(  0-C ,  1-C ) :   1.0609 B(  0-C ,  2-H ) :   0.9579 B(  0-C ,  3-H ) :   0.9577
B(  0-C ,  4-H ) :   0.9316 B(  1-C ,  5-C ) :   1.0607 B(  1-C ,  6-C ) :   1.0610
B(  1-C , 13-F ) :   0.9425 B(  5-C ,  7-H ) :   0.9578 B(  5-C ,  8-H ) :   0.9317
B(  5-C ,  9-H ) :   0.9578 B(  6-C , 10-H ) :   0.9326 B(  6-C , 11-H ) :   0.9579
B(  6-C , 12-H ) :   0.9579

Dispersion correction           -0.020418000
FINAL SINGLE POINT ENERGY      -717.315040291079
Dispersion correction             ... done (  0.1 sec)

DIPOLE MOMENT
-------------

Method             : SCF
Type of density    : Electron Density
Multiplicity       :   2
Irrep              :   0
Energy             :  -717.2946222910632059 Eh
Basis              : AO
                                X                 Y                 Z
Electronic contribution:     -3.035868004       5.167150484      -1.894597219
Nuclear contribution   :      2.707376149      -4.602817602       1.692092795
                        -----------------------------------------
Total Dipole Moment    :     -0.328491855       0.564332882      -0.202504424
                        -----------------------------------------
Magnitude (a.u.)       :      0.683656743
Magnitude (Debye)      :      1.737717342

Rotational constants in cm-1:             0.152977             0.037663             0.037659
Rotational constants in MHz :          4586.125113          1129.106965          1128.989193

                             ****ORCA TERMINATED NORMALLY****
TOTAL RUN TIME: 0 days 0 hours 0 minutes 47 seconds 8 msec
