                         Program Version 6.1.0  -  RELEASE   -
|  1> ! B3LYP def2-SVP d3 EnGrad
|  2> %pal nprocs 6 end
|  3> *xyz 0 1
|  4> C   2.08812557812117 0.72448315118335 0.07042864719308
|  5> C   0.61728856194107 0.52756076910603 0.31456559027643
|  6> C   -0.08268509226601 -0.76787991952197 0.2624698939223
|  7> C   0.56891707655902 -2.08998992821692 -0.03772746744637
|  8> O   -0.19358211631838 0.17112752402523 -0.82207493440155
|  9> H   2.26034494047081 1.68782842453599 -0.43618223305509
| 10> H   2.51394743272638 -0.06948442813898 -0.55809334646914
| 11> H   2.6320186216116 0.74862048545469 1.02903976090983
| 12> H   0.83956476582153 -2.602230502807 0.90038678718695
| 13> H   1.47343598062674 -1.97398046615388 -0.65026349239182
| 14> H   -0.1303021497851 -2.74227858569088 -0.5858560684679
| 15> H   -1.77089882895215 1.06659382806999 -0.33221767575207
| 16> H   0.14048912162676 1.29492526219849 0.94011265356151
| 17> H   -3.18991957363419 0.91439573149593 0.2130867798605
| 18> O   -2.36734445746 1.39601141519502 0.36762334783844
| 19> H   -1.00606786108926 -0.82339276073505 0.85610175723491
| 20> *
| 21>
| 22>                          ****END OF INPUT****

CARTESIAN COORDINATES (ANGSTROEM)
---------------------------------
  C      2.088126    0.724483    0.070429
  C      0.617289    0.527561    0.314566
  C     -0.082685   -0.767880    0.262470
  C      0.568917   -2.089990   -0.037727
  O     -0.193582    0.171128   -0.822075
  H      2.260345    1.687828   -0.436182
  H      2.513947   -0.069484   -0.558093
  H      2.632019    0.748620    1.029040
  H      0.839565   -2.602231    0.900387
  H      1.473436   -1.973980   -0.650263
  H     -0.130302   -2.742279   -0.585856
  H     -1.770899    1.066594   -0.332218
  H      0.140489    1.294925    0.940113
  H     -3.189920    0.914396    0.213087
  O     -2.367344    1.396011    0.367623
  H     -1.006068   -0.823393    0.856102

 Total Charge           Charge          ....    0
 Multiplicity           Mult            ....    1
 Number of Electrons    NEL             ....   50
 Basis Dimension        Dim             ....  134

ORBITAL ENERGIES
----------------

  NO   OCC          E(Eh)            E(eV)
   0   2.0000     -19.145456      -520.9744
   1   2.0000     -19.098045      -519.6842
   2   2.0000     -10.239123      -278.6207
   3   2.0000     -10.237898      -278.5874
   4   2.0000     -10.190589      -277.3000
   5   2.0000     -10.188760      -277.2503
   6   2.0000      -1.064429       -28.9646
   7   2.0000      -0.956311       -26.0226
   8   2.0000      -0.744137       -20.2490
   9   2.0000      -0.735170       -20.0050
  10   2.0000      -0.624719       -16.9995
  11   2.0000      -0.565547       -15.3893
  12   2.0000      -0.525780       -14.3072
  13   2.0000      -0.481434       -13.1005
  14   2.0000      -0.454211       -12.3597
  15   2.0000      -0.436904       -11.8888
  16   2.0000      -0.423590       -11.5265
  17   2.0000      -0.399769       -10.8783
  18   2.0000      -0.398479       -10.8432
  19   2.0000      -0.368801       -10.0356
  20   2.0000      -0.354776        -9.6540
  21   2.0000      -0.347787        -9.4638
  22   2.0000      -0.300177        -8.1682
  23   2.0000      -0.275719        -7.5027
  24   2.0000      -0.272944        -7.4272
  25   0.0000       0.056761         1.5446
  26   0.0000       0.066047         1.7972
  27   0.0000       0.092599         2.5198
  28   0.0000       0.097871         2.6632
  29   0.0000       0.105118         2.8604

MULLIKEN ATOMIC CHARGES
-----------------------
   0 C :    0.097816
   1 C :    0.027526
   2 C :    0.016354
   3 C :    0.098037
   4 O :   -0.366715
   5 H :    0.025596
   6 H :    0.003017
   7 H :    0.020821
   8 H :    0.021223
   9 H :    0.005700
  10 H :    0.021539
  11 H :    0.157594
  12 H :    0.033078
  13 H :    0.143641
  14 O :   -0.310332
  15 H :    0.005105
Sum of atomic charges:   -0.0000000

LOEWDIN ATOMIC CHARGES
----------------------
   0 C :   -0.056603
   1 C :    0.061084
   2 C :    0.055277
   3 C :   -0.057130
   4 O :   -0.189945
   5 H :    0.035268
   6 H :    0.026749
   7 H :    0.034130
   8 H :    0.034106
   9 H :    0.027795
  10 H :    0.033330
  11 H :    0.051640
  12 H :    0.021382
  13 H :    0.071991
  14 O :   -0.159058
  15 H :    0.009983

  Mayer bond orders larger than 0.100000
B(  0-C ,  1-C ) :   1.0927 B(  0-C ,  5-H ) :   0.9524 B(  0-C ,  6-H ) :   0.9487
B(  0-C ,  7-H ) :   0.9560 B(  1-C ,  2-C ) :   1.0614 B(  1-C ,  4-O ) :   0.9092
B(  1-C , 12-H ) :   0.9328 B(  2-C ,  3-C ) :   1.0881 B(  2-C ,  4-O ) :   0.9221
B(  2-C , 15-H ) :   0.9271 B(  3-C ,  8-H ) :   0.9565 B(  3-C ,  9-H ) :   0.9486
B(  3-C , 10-H ) :   0.9525 B(  4-O , 11-H ) :   0.1061 B( 11-H , 14-O ) :   0.9471
B( 13-H , 14-O ) :   1.0032

Dispersion correction           -0.017658392
FINAL SINGLE POINT ENERGY      -308.463425594708
Dispersion correction             ... done (  0.0 sec)

DIPOLE MOMENT
-------------

Method             : SCF
Type of density    : Electron Density
Multiplicity       :   1
Irrep              :   0
Energy             :  -308.4457672030652020 Eh
Basis              : AO
                                X                 Y                 Z
Electronic contribution:     -2.978537784       1.872505213      -1.000913211
Nuclear contribution   :      3.371472115      -2.662402588       1.133950353
                        -----------------------------------------
Total Dipole Moment    :      0.392934330      -0.789897375       0.133037142
                        -----------------------------------------
Magnitude (a.u.)       :      0.892207449
Magnitude (Debye)      :      2.267811109

Rotational constants in cm-1:             0.140731             0.072243             0.053573
Rotational constants in MHz :          4219.021858          2165.792591          1606.079106

                             ****ORCA TERMINATED NORMALLY****
TOTAL RUN TIME: 0 days 0 hours 0 minutes 15 seconds 978 msec
