                         Program Version 6.1.0  -  RELEASE   -
|  1> ! B3LYP def2-SVP d3 EnGrad
|  2> %pal nprocs 6 end
|  3> *xyz 0 1
|  4> C   1.67568958109957 -0.49782418006203 -0.00334657655769
|  5> O   0.78332839080375 0.51177954167064 0.39387557368941
|  6> C   -2.10476938977913 -0.35786992017883 -0.00315008641502
|  7> O   -1.62300772753166 0.12017336460305 -1.00099726303738
|  8> H   2.41273893516273 -0.64307383746308 0.80302491064711
|  9> H   1.17958160941221 -1.47523831425594 -0.17956095580705
| 10> H   2.23945794009541 -0.24241458672548 -0.92377545279219
| 11> H   -3.14456603167423 -0.76591068971223 0.00712279625765
| 12> H   0.11998816337171 0.61436980003486 -0.30933030514952
| 13> H   -1.52783847096035 -0.40954517791093 0.94949835916466
| 14> *
| 15>
| 16>                          ****END OF INPUT****

CARTESIAN COORDINATES (ANGSTROEM)
---------------------------------
  C      1.675690   -0.497824   -0.003347
  O      0.783328    0.511780    0.393876
  C     -2.104769   -0.357870   -0.003150
  O     -1.623008    0.120173   -1.000997
  H      2.412739   -0.643074    0.803025
  H      1.179582   -1.475238   -0.179561
  H      2.239458   -0.242415   -0.923775
  H     -3.144566   -0.765911    0.007123
  H      0.119988    0.614370   -0.309330
  H     -1.527838   -0.409545    0.949498

 Total Charge           Charge          ....    0
 Multiplicity           Mult            ....    1
 Number of Electrons    NEL             ....   34
 Basis Dimension        Dim             ....   86

ORBITAL ENERGIES
----------------

  NO   OCC          E(Eh)            E(eV)
   0   2.0000     -19.170847      -521.6653
   1   2.0000     -19.107221      -519.9339
   2   2.0000     -10.299698      -280.2690
   3   2.0000     -10.217430      -278.0304
   4   2.0000      -1.067724       -29.0543
   5   2.0000      -0.985207       -26.8088
   6   2.0000      -0.657110       -17.8809
   7   2.0000      -0.635506       -17.2930
   8   2.0000      -0.517864       -14.0918
   9   2.0000      -0.485518       -13.2116
  10   2.0000      -0.463893       -12.6232
  11   2.0000      -0.424371       -11.5477
  12   2.0000      -0.418500       -11.3880
  13   2.0000      -0.408952       -11.1281
  14   2.0000      -0.320074        -8.7097
  15   2.0000      -0.283363        -7.7107
  16   2.0000      -0.254882        -6.9357
  17   0.0000      -0.059552        -1.6205
  18   0.0000       0.068720         1.8700
  19   0.0000       0.081537         2.2187
  20   0.0000       0.120036         3.2664
  21   0.0000       0.138788         3.7766

MULLIKEN ATOMIC CHARGES
-----------------------
   0 C :    0.159648
   1 O :   -0.348596
   2 C :    0.172609
   3 O :   -0.228532
   4 H :    0.012519
   5 H :   -0.015980
   6 H :   -0.000798
   7 H :    0.037682
   8 H :    0.166939
   9 H :    0.044509
Sum of atomic charges:   -0.0000000

LOEWDIN ATOMIC CHARGES
----------------------
   0 C :    0.058286
   1 O :   -0.160085
   2 C :    0.154911
   3 O :   -0.113143
   4 H :    0.014977
   5 H :   -0.005386
   6 H :    0.000825
   7 H :    0.000911
   8 H :    0.049477
   9 H :   -0.000772

  Mayer bond orders larger than 0.100000
B(  0-C ,  1-O ) :   1.0528 B(  0-C ,  4-H ) :   0.9816 B(  0-C ,  5-H ) :   0.9622
B(  0-C ,  6-H ) :   0.9712 B(  1-O ,  8-H ) :   0.9391 B(  2-C ,  3-O ) :   2.0572
B(  2-C ,  7-H ) :   0.9217 B(  2-C ,  9-H ) :   0.9144 B(  3-O ,  8-H ) :   0.1003

Dispersion correction           -0.007541719
FINAL SINGLE POINT ENERGY      -229.941236936027
Dispersion correction             ... done (  0.0 sec)

DIPOLE MOMENT
-------------

Method             : SCF
Type of density    : Electron Density
Multiplicity       :   1
Irrep              :   0
Energy             :  -229.9336952167711843 Eh
Basis              : AO
                                X                 Y                 Z
Electronic contribution:     -3.372273076       1.790314492      -1.018591616
Nuclear contribution   :      2.764889279      -2.448085144       1.177325498
                        -----------------------------------------
Total Dipole Moment    :     -0.607383797      -0.657770652       0.158733882
                        -----------------------------------------
Magnitude (a.u.)       :      0.909271001
Magnitude (Debye)      :      2.311183211

Rotational constants in cm-1:             0.616234             0.095685             0.094509
Rotational constants in MHz :         18474.217134          2868.572098          2833.314761

                             ****ORCA TERMINATED NORMALLY****
TOTAL RUN TIME: 0 days 0 hours 0 minutes 9 seconds 93 msec
