                         Program Version 6.1.0  -  RELEASE   -
|  1> ! B3LYP def2-SVP d3 EnGrad
|  2> %pal nprocs 6 end
|  3> *xyz 0 1
|  4> N   0.74278193832712 1.02762849191002 0.99832331580459
|  5> B   0.91420755980865 0.31874724017029 -0.39559251505029
|  6> N   -0.26873977861076 -0.84925589910179 -0.05027166429248
|  7> B   -1.57465607312167 -0.80317407708862 -0.6244053324521
|  8> H   -0.09887935515705 -0.08056638644546 0.89108718712275
|  9> H   1.96946442824631 -0.27458744463188 -0.50503025958946
| 10> H   0.56649000538109 0.99192056054264 -1.34160142325329
| 11> H   0.32485617355323 1.9560816585818 0.98672664743947
| 12> H   1.55030942707683 1.03159847836968 1.61833332919076
| 13> H   0.12106634437243 -1.77560340924519 0.11949828483202
| 14> H   -2.1675356986772 -1.82059101548458 -0.89418552494526
| 15> H   -2.07936497119898 0.27780180242308 -0.80288204480671
| 16> *
| 17>
| 18>                          ****END OF INPUT****

CARTESIAN COORDINATES (ANGSTROEM)
---------------------------------
  N      0.742782    1.027628    0.998323
  B      0.914208    0.318747   -0.395593
  N     -0.268740   -0.849256   -0.050272
  B     -1.574656   -0.803174   -0.624405
  H     -0.098879   -0.080566    0.891087
  H      1.969464   -0.274587   -0.505030
  H      0.566490    0.991921   -1.341601
  H      0.324856    1.956082    0.986727
  H      1.550309    1.031598    1.618333
  H      0.121066   -1.775603    0.119498
  H     -2.167536   -1.820591   -0.894186
  H     -2.079365    0.277802   -0.802882

 Total Charge           Charge          ....    0
 Multiplicity           Mult            ....    1
 Number of Electrons    NEL             ....   32
 Basis Dimension        Dim             ....   96

ORBITAL ENERGIES
----------------

  NO   OCC          E(Eh)            E(eV)
   0   2.0000     -14.327221      -389.8635
   1   2.0000     -14.316459      -389.5707
   2   2.0000      -6.769732      -184.2138
   3   2.0000      -6.738494      -183.3637
   4   2.0000      -0.886281       -24.1169
   5   2.0000      -0.826766       -22.4975
   6   2.0000      -0.561650       -15.2833
   7   2.0000      -0.525923       -14.3111
   8   2.0000      -0.484210       -13.1760
   9   2.0000      -0.452786       -12.3209
  10   2.0000      -0.417282       -11.3548
  11   2.0000      -0.376058       -10.2331
  12   2.0000      -0.326655        -8.8887
  13   2.0000      -0.315457        -8.5840
  14   2.0000      -0.290616        -7.9081
  15   2.0000      -0.269582        -7.3357
  16   0.0000      -0.030096        -0.8190
  17   0.0000       0.051896         1.4122
  18   0.0000       0.073042         1.9876
  19   0.0000       0.111472         3.0333
  20   0.0000       0.119012         3.2385

MULLIKEN ATOMIC CHARGES
-----------------------
   0 N :   -0.188241
   1 B :   -0.033323
   2 N :   -0.102451
   3 B :    0.053987
   4 H :    0.163310
   5 H :   -0.081430
   6 H :   -0.096170
   7 H :    0.119771
   8 H :    0.118666
   9 H :    0.138544
  10 H :   -0.041696
  11 H :   -0.050966
Sum of atomic charges:    0.0000000

LOEWDIN ATOMIC CHARGES
----------------------
   0 N :   -0.018233
   1 B :   -0.199644
   2 N :    0.059686
   3 B :   -0.003638
   4 H :    0.113544
   5 H :   -0.056994
   6 H :   -0.053166
   7 H :    0.074203
   8 H :    0.073320
   9 H :    0.091700
  10 H :   -0.043200
  11 H :   -0.037578

  Mayer bond orders larger than 0.100000
B(  0-N ,  1-B ) :   0.9412 B(  0-N ,  4-H ) :   0.4493 B(  0-N ,  7-H ) :   0.9646
B(  0-N ,  8-H ) :   0.9641 B(  1-B ,  2-N ) :   0.7018 B(  1-B ,  5-H ) :   0.9456
B(  1-B ,  6-H ) :   0.9405 B(  2-N ,  3-B ) :   1.3059 B(  2-N ,  4-H ) :   0.5255
B(  2-N ,  9-H ) :   0.9268 B(  3-B , 10-H ) :   0.9652 B(  3-B , 11-H ) :   0.9620

Dispersion correction           -0.012782532
FINAL SINGLE POINT ENERGY      -163.819081923459
Dispersion correction             ... done (  0.0 sec)

DIPOLE MOMENT
-------------

Method             : SCF
Type of density    : Electron Density
Multiplicity       :   1
Irrep              :   0
Energy             :  -163.8062993913420939 Eh
Basis              : AO
                                X                 Y                 Z
Electronic contribution:     -0.695934629      -0.970844436       0.361509239
Nuclear contribution   :      0.709213166       0.907184529       0.601792762
                        -----------------------------------------
Total Dipole Moment    :      0.013278538      -0.063659906       0.963302000
                        -----------------------------------------
Magnitude (a.u.)       :      0.965494509
Magnitude (Debye)      :      2.454092012

Rotational constants in cm-1:             0.548848             0.146805             0.138357
Rotational constants in MHz :         16454.040732          4401.099404          4147.840276

                             ****ORCA TERMINATED NORMALLY****
TOTAL RUN TIME: 0 days 0 hours 0 minutes 10 seconds 865 msec
