                         Program Version 6.1.0  -  RELEASE   -
|  1> ! B3LYP def2-SVP d3 EnGrad
|  2> %pal nprocs 6 end
|  3> *xyz 0 1
|  4> C   -2.49354793998164 -0.03757721804034 1.20454536791666
|  5> C   -1.13077300292356 -0.07374767173633 1.82630727732501
|  6> N   -0.06589323325389 0.02998966045042 1.14774343863779
|  7> C   1.20289452965476 -0.01388009817953 1.83330257549028
|  8> H   -1.09969536950108 -0.19818944906753 2.93349699960517
|  9> H   -3.04552373277319 -0.96829618010633 1.42387457829569
| 10> H   -3.09075972858942 0.79023030968799 1.62541426346802
| 11> H   -2.40990159357708 0.08881868736943 0.11600908513453
| 12> H   1.81237159330124 -0.84088440445006 1.42973427721518
| 13> H   1.765432473907 0.91318853745224 1.62729742036517
| 14> H   1.12091900373683 -0.13968617337995 2.93399171654648
| 15> *
| 16>
| 17>                          ****END OF INPUT****

CARTESIAN COORDINATES (ANGSTROEM)
---------------------------------
  C     -2.493548   -0.037577    1.204545
  C     -1.130773   -0.073748    1.826307
  N     -0.065893    0.029990    1.147743
  C      1.202895   -0.013880    1.833303
  H     -1.099695   -0.198189    2.933497
  H     -3.045524   -0.968296    1.423875
  H     -3.090760    0.790230    1.625414
  H     -2.409902    0.088819    0.116009
  H      1.812372   -0.840884    1.429734
  H      1.765432    0.913189    1.627297
  H      1.120919   -0.139686    2.933992

 Total Charge           Charge          ....    0
 Multiplicity           Mult            ....    1
 Number of Electrons    NEL             ....   32
 Basis Dimension        Dim             ....   91

ORBITAL ENERGIES
----------------

  NO   OCC          E(Eh)            E(eV)
   0   2.0000     -14.309743      -389.3879
   1   2.0000     -10.221590      -278.1436
   2   2.0000     -10.203644      -277.6553
   3   2.0000     -10.183863      -277.1170
   4   2.0000      -0.904652       -24.6168
   5   2.0000      -0.738663       -20.1000
   6   2.0000      -0.662298       -18.0220
   7   2.0000      -0.542669       -14.7668
   8   2.0000      -0.476043       -12.9538
   9   2.0000      -0.439357       -11.9555
  10   2.0000      -0.432591       -11.7714
  11   2.0000      -0.406423       -11.0593
  12   2.0000      -0.382374       -10.4049
  13   2.0000      -0.363533        -9.8922
  14   2.0000      -0.284689        -7.7468
  15   2.0000      -0.243714        -6.6318
  16   0.0000       0.006523         0.1775
  17   0.0000       0.076202         2.0736
  18   0.0000       0.082105         2.2342
  19   0.0000       0.105132         2.8608
  20   0.0000       0.133763         3.6399

MULLIKEN ATOMIC CHARGES
-----------------------
   0 C :    0.071149
   1 C :   -0.088799
   2 N :   -0.182411
   3 C :    0.108295
   4 H :   -0.016096
   5 H :    0.023857
   6 H :    0.023934
   7 H :    0.025032
   8 H :    0.023557
   9 H :    0.023551
  10 H :   -0.012070
Sum of atomic charges:    0.0000000

LOEWDIN ATOMIC CHARGES
----------------------
   0 C :   -0.066947
   1 C :    0.021561
   2 N :   -0.105591
   3 C :    0.003278
   4 H :   -0.009901
   5 H :    0.035644
   6 H :    0.035650
   7 H :    0.034152
   8 H :    0.026080
   9 H :    0.026119
  10 H :   -0.000044

  Mayer bond orders larger than 0.100000
B(  0-C ,  1-C ) :   1.0505 B(  0-C ,  5-H ) :   0.9523 B(  0-C ,  6-H ) :   0.9523
B(  0-C ,  7-H ) :   0.9607 B(  1-C ,  2-N ) :   2.0052 B(  1-C ,  4-H ) :   0.9312
B(  2-N ,  3-C ) :   1.0294 B(  3-C ,  8-H ) :   0.9655 B(  3-C ,  9-H ) :   0.9655
B(  3-C , 10-H ) :   0.9464

Dispersion correction           -0.010651955
FINAL SINGLE POINT ENERGY      -173.031970762121
Dispersion correction             ... done (  0.1 sec)

DIPOLE MOMENT
-------------

Method             : SCF
Type of density    : Electron Density
Multiplicity       :   1
Irrep              :   0
Energy             :  -173.0213188067331771 Eh
Basis              : AO
                                X                 Y                 Z
Electronic contribution:      0.458266187       0.107885717      -0.878912704
Nuclear contribution   :     -0.613314713      -0.166783829       1.369598002
                        -----------------------------------------
Total Dipole Moment    :     -0.155048526      -0.058898112       0.490685298
                        -----------------------------------------
Magnitude (a.u.)       :      0.517958584
Magnitude (Debye)      :      1.316546092

Rotational constants in cm-1:             1.289441             0.135255             0.128286
Rotational constants in MHz :         38656.479204          4054.836455          3845.919200

                             ****ORCA TERMINATED NORMALLY****
TOTAL RUN TIME: 0 days 0 hours 0 minutes 10 seconds 385 msec
