                         Program Version 6.1.0  -  RELEASE   -
|  1> ! B3LYP def2-SVP d3 EnGrad
|  2> %pal nprocs 6 end
|  3> *xyz 0 1
|  4> C   0.44863286179335 -0.46290031806836 0.01477762911339
|  5> H   -0.23948715334207 0.24710334194027 0.69094205029901
|  6> N   -0.20914570845128 0.2157969761281 -0.7057196794124
|  7> *
|  8>
|  9>                          ****END OF INPUT****

CARTESIAN COORDINATES (ANGSTROEM)
---------------------------------
  C      0.448633   -0.462900    0.014778
  H     -0.239487    0.247103    0.690942
  N     -0.209146    0.215797   -0.705720

 Total Charge           Charge          ....    0
 Multiplicity           Mult            ....    1
 Number of Electrons    NEL             ....   14
 Basis Dimension        Dim             ....   33

ORBITAL ENERGIES
----------------

  NO   OCC          E(Eh)            E(eV)
   0   2.0000     -14.398186      -391.7946
   1   2.0000     -10.249269      -278.8968
   2   2.0000      -0.979449       -26.6522
   3   2.0000      -0.521314       -14.1857
   4   2.0000      -0.448497       -12.2042
   5   2.0000      -0.388583       -10.5739
   6   2.0000      -0.338959        -9.2236
   7   0.0000      -0.061334        -1.6690
   8   0.0000       0.004130         0.1124
   9   0.0000       0.044962         1.2235
  10   0.0000       0.269958         7.3459
  11   0.0000       0.403656        10.9840

MULLIKEN ATOMIC CHARGES
-----------------------
   0 C :   -0.134932
   1 H :    0.165556
   2 N :   -0.030624
Sum of atomic charges:   -0.0000000

LOEWDIN ATOMIC CHARGES
----------------------
   0 C :   -0.144627
   1 H :    0.144043
   2 N :    0.000584

  Mayer bond orders larger than 0.100000
B(  0-C ,  1-H ) :   0.6291 B(  0-C ,  2-N ) :   2.2908 B(  1-H ,  2-N ) :   0.4101

Dispersion correction           -0.001450421
FINAL SINGLE POINT ENERGY       -93.225732887595
Dispersion correction             ... done (  0.1 sec)

DIPOLE MOMENT
-------------

Method             : SCF
Type of density    : Electron Density
Multiplicity       :   1
Irrep              :   0
Energy             :   -93.2242824662853309 Eh
Basis              : AO
                                X                 Y                 Z
Electronic contribution:      0.093723897      -0.096700568      -0.553846230
Nuclear contribution   :     -0.303266942       0.312911460       0.958983691
                        -----------------------------------------
Total Dipole Moment    :     -0.209543045       0.216210892       0.405137461
                        -----------------------------------------
Magnitude (a.u.)       :      0.504769056
Magnitude (Debye)      :      1.283020977

Rotational constants in cm-1:            13.548489             1.830170             1.612367
Rotational constants in MHz :        406173.469675         54867.122476         48337.543129

                             ****ORCA TERMINATED NORMALLY****
TOTAL RUN TIME: 0 days 0 hours 0 minutes 4 seconds 641 msec
