                         Program Version 6.1.0  -  RELEASE   -
|  1> ! B3LYP def2-SVP d3 EnGrad
|  2> %pal nprocs 6 end
|  3> *xyz 0 1
|  4> C   -2.58210291649461 -0.94824922502892 0.1320067766157
|  5> C   -1.25860365695516 -0.40466215608053 -0.3701126082477
|  6> H   -3.3845521312226 -0.7153285669546 -0.58398383634963
|  7> H   -2.81641396526059 -0.49723193651202 1.10570825766996
|  8> H   -2.51414968749873 -2.03851347837293 0.25507340892402
|  9> O   -1.30199294318874 0.96944840097278 -0.70013667126932
| 10> O   -1.69221313526167 1.72400910186231 0.47363047086007
| 11> H   -2.48012058987231 2.17267854140178 0.1267855133044
| 12> O   -0.28177343969574 -0.70723570914386 0.58577757592206
| 13> C   1.60069156516704 0.68341793796038 0.27691685200288
| 14> C   1.04881409491316 -0.53600688787968 0.21168008449467
| 15> C   1.69562273528641 -1.83081134511626 -0.18003874202544
| 16> H   -0.98984572453565 -0.82930554612473 -1.35847602651621
| 17> H   2.75856692290726 -1.71513723807876 -0.4286623727323
| 18> H   1.18358368068988 -2.27256921872526 -1.05375719355853
| 19> H   1.60340972846996 -2.55958860374419 0.6432336801457
| 20> C   3.01466154194107 1.05496934233386 -0.05186013749166
| 21> H   0.94027787094977 1.49024875632815 0.60809906944008
| 22> H   3.61850206936965 0.20000965268278 -0.38897283018933
| 23> H   3.52067569593973 1.49814874777916 0.82446026745828
| 24> H   3.04456828435187 1.82099043044056 -0.84714253845768
| 25> *
| 26>
| 27>                          ****END OF INPUT****

CARTESIAN COORDINATES (ANGSTROEM)
---------------------------------
  C     -2.582103   -0.948249    0.132007
  C     -1.258604   -0.404662   -0.370113
  H     -3.384552   -0.715329   -0.583984
  H     -2.816414   -0.497232    1.105708
  H     -2.514150   -2.038513    0.255073
  O     -1.301993    0.969448   -0.700137
  O     -1.692213    1.724009    0.473630
  H     -2.480121    2.172679    0.126786
  O     -0.281773   -0.707236    0.585778
  C      1.600692    0.683418    0.276917
  C      1.048814   -0.536007    0.211680
  C      1.695623   -1.830811   -0.180039
  H     -0.989846   -0.829306   -1.358476
  H      2.758567   -1.715137   -0.428662
  H      1.183584   -2.272569   -1.053757
  H      1.603410   -2.559589    0.643234
  C      3.014662    1.054969   -0.051860
  H      0.940278    1.490249    0.608099
  H      3.618502    0.200010   -0.388973
  H      3.520676    1.498149    0.824460
  H      3.044568    1.820990   -0.847143

 Total Charge           Charge          ....    0
 Multiplicity           Mult            ....    1
 Number of Electrons    NEL             ....   72
 Basis Dimension        Dim             ....  186

ORBITAL ENERGIES
----------------

  NO   OCC          E(Eh)            E(eV)
   0   2.0000     -19.183778      -522.0171
   1   2.0000     -19.181388      -521.9521
   2   2.0000     -19.136221      -520.7230
   3   2.0000     -10.285200      -279.8745
   4   2.0000     -10.222407      -278.1658
   5   2.0000     -10.181544      -277.0539
   6   2.0000     -10.180671      -277.0301
   7   2.0000     -10.178431      -276.9692
   8   2.0000     -10.167285      -276.6659
   9   2.0000      -1.111825       -30.2543
  10   2.0000      -1.032857       -28.1055
  11   2.0000      -0.896639       -24.3988
  12   2.0000      -0.781623       -21.2690
  13   2.0000      -0.733044       -19.9472
  14   2.0000      -0.707860       -19.2619
  15   2.0000      -0.645522       -17.5656
  16   2.0000      -0.604976       -16.4622
  17   2.0000      -0.565876       -15.3983
  18   2.0000      -0.497849       -13.5472
  19   2.0000      -0.490473       -13.3465
  20   2.0000      -0.482407       -13.1270
  21   2.0000      -0.462044       -12.5729
  22   2.0000      -0.431747       -11.7484
  23   2.0000      -0.424288       -11.5455
  24   2.0000      -0.403336       -10.9753
  25   2.0000      -0.398613       -10.8468
  26   2.0000      -0.392150       -10.6709
  27   2.0000      -0.381784       -10.3889
  28   2.0000      -0.379727       -10.3329
  29   2.0000      -0.376085       -10.2338
  30   2.0000      -0.347897        -9.4668
  31   2.0000      -0.334755        -9.1092
  32   2.0000      -0.317037        -8.6270
  33   2.0000      -0.278090        -7.5672
  34   2.0000      -0.265722        -7.2307
  35   2.0000      -0.224535        -6.1099
  36   0.0000       0.022021         0.5992
  37   0.0000       0.034593         0.9413
  38   0.0000       0.061569         1.6754
  39   0.0000       0.069602         1.8940
  40   0.0000       0.084799         2.3075

MULLIKEN ATOMIC CHARGES
-----------------------
   0 C :    0.025428
   1 C :    0.335473
   2 H :    0.008977
   3 H :    0.033660
   4 H :    0.020743
   5 O :   -0.254211
   6 O :   -0.148690
   7 H :    0.184589
   8 O :   -0.347294
   9 C :   -0.084421
  10 C :   -0.017065
  11 C :    0.110013
  12 H :   -0.012770
  13 H :   -0.000342
  14 H :    0.006811
  15 H :    0.023868
  16 C :    0.071970
  17 H :    0.003215
  18 H :    0.001436
  19 H :    0.018827
  20 H :    0.019784
Sum of atomic charges:    0.0000000

LOEWDIN ATOMIC CHARGES
----------------------
   0 C :   -0.069898
   1 C :    0.114071
   2 H :    0.026078
   3 H :    0.031901
   4 H :    0.033016
   5 O :   -0.088717
   6 O :   -0.056692
   7 H :    0.076363
   8 O :   -0.129555
   9 C :   -0.063419
  10 C :    0.021225
  11 C :   -0.057266
  12 H :    0.009339
  13 H :    0.027189
  14 H :    0.028280
  15 H :    0.035361
  16 C :   -0.053819
  17 H :    0.030672
  18 H :    0.022062
  19 H :    0.031618
  20 H :    0.032193

  Mayer bond orders larger than 0.100000
B(  0-C ,  1-C ) :   1.0687 B(  0-C ,  2-H ) :   0.9564 B(  0-C ,  3-H ) :   0.9562
B(  0-C ,  4-H ) :   0.9570 B(  1-C ,  5-O ) :   0.9944 B(  1-C ,  8-O ) :   1.0335
B(  1-C , 12-H ) :   0.9069 B(  5-O ,  6-O ) :   0.9298 B(  6-O ,  7-H ) :   0.9722
B(  8-O , 10-C ) :   0.9689 B(  9-C , 10-C ) :   1.9138 B(  9-C , 16-C ) :   1.0764
B(  9-C , 17-H ) :   0.9269 B( 10-C , 11-C ) :   1.1071 B( 11-C , 13-H ) :   0.9470
B( 11-C , 14-H ) :   0.9380 B( 11-C , 15-H ) :   0.9424 B( 16-C , 18-H ) :   0.9615
B( 16-C , 19-H ) :   0.9475 B( 16-C , 20-H ) :   0.9498

Dispersion correction           -0.028542746
FINAL SINGLE POINT ENERGY      -460.837707904676
Dispersion correction             ... done (  0.0 sec)

DIPOLE MOMENT
-------------

Method             : SCF
Type of density    : Electron Density
Multiplicity       :   1
Irrep              :   0
Energy             :  -460.8091651589018625 Eh
Basis              : AO
                                X                 Y                 Z
Electronic contribution:     -5.045675165       3.464748835       0.984766278
Nuclear contribution   :      4.639806052      -3.588608396      -1.440515015
                        -----------------------------------------
Total Dipole Moment    :     -0.405869113      -0.123859561      -0.455748737
                        -----------------------------------------
Magnitude (a.u.)       :      0.622718106
Magnitude (Debye)      :      1.582823635

Rotational constants in cm-1:             0.081923             0.035876             0.027170
Rotational constants in MHz :          2456.001974          1075.523319           814.521487

                             ****ORCA TERMINATED NORMALLY****
TOTAL RUN TIME: 0 days 0 hours 0 minutes 30 seconds 296 msec
