                         Program Version 6.1.0  -  RELEASE   -
|  1> ! B3LYP def2-SVP d3 EnGrad
|  2> %pal nprocs 6 end
|  3> *xyz 0 1
|  4> H   -1.44423136611042 0.46425145731494 1.06556436200346
|  5> O   -0.80037627890711 0.26068296056583 1.76540747748554
|  6> O   0.25589299254244 -1.68549787426567 -0.35918359399901
|  7> S   0.16924359219024 -0.40704694779579 -1.07751157989335
|  8> Cl   2.29779074077708 0.69952951388904 -2.16406936045661
|  9> Cl   1.27181398383269 1.15622963125993 0.41477130944387
| 10> O   -1.15816187174954 0.19087074004556 -1.27272221036687
| 11> H   -0.59197179257537 -0.67901948101382 1.62774359578297
| 12> *
| 13>
| 14>                          ****END OF INPUT****

CARTESIAN COORDINATES (ANGSTROEM)
---------------------------------
  H     -1.444231    0.464251    1.065564
  O     -0.800376    0.260683    1.765407
  O      0.255893   -1.685498   -0.359184
  S      0.169244   -0.407047   -1.077512
  Cl     2.297791    0.699530   -2.164069
  Cl     1.271814    1.156230    0.414771
  O     -1.158162    0.190871   -1.272722
  H     -0.591972   -0.679019    1.627744

 Total Charge           Charge          ....    0
 Multiplicity           Mult            ....    1
 Number of Electrons    NEL             ....   76
 Basis Dimension        Dim             ....  106

ORBITAL ENERGIES
----------------

  NO   OCC          E(Eh)            E(eV)
   0   2.0000    -101.539543     -2763.0314
   1   2.0000    -101.529356     -2762.7542
   2   2.0000     -89.082818     -2424.0667
   3   2.0000     -19.203228      -522.5464
   4   2.0000     -19.203018      -522.5407
   5   2.0000     -19.183248      -522.0027
   6   2.0000      -9.490420      -258.2475
   7   2.0000      -9.478943      -257.9352
   8   2.0000      -8.155796      -221.9305
   9   2.0000      -7.258564      -197.5156
  10   2.0000      -7.252065      -197.3387
  11   2.0000      -7.250725      -197.3023
  12   2.0000      -7.248525      -197.2424
  13   2.0000      -7.237490      -196.9421
  14   2.0000      -7.237004      -196.9289
  15   2.0000      -6.123889      -166.6395
  16   2.0000      -6.123314      -166.6238
  17   2.0000      -6.119066      -166.5083
  18   2.0000      -1.150100       -31.2958
  19   2.0000      -1.050465       -28.5846
  20   2.0000      -1.033144       -28.1133
  21   2.0000      -0.836668       -22.7669
  22   2.0000      -0.796539       -21.6749
  23   2.0000      -0.659129       -17.9358
  24   2.0000      -0.562581       -15.3086
  25   2.0000      -0.523858       -14.2549
  26   2.0000      -0.514504       -14.0004
  27   2.0000      -0.505204       -13.7473
  28   2.0000      -0.423987       -11.5373
  29   2.0000      -0.390341       -10.6217
  30   2.0000      -0.388823       -10.5804
  31   2.0000      -0.382527       -10.4091
  32   2.0000      -0.372713       -10.1420
  33   2.0000      -0.345857        -9.4112
  34   2.0000      -0.340127        -9.2553
  35   2.0000      -0.325896        -8.8681
  36   2.0000      -0.320551        -8.7226
  37   2.0000      -0.277636        -7.5549
  38   0.0000      -0.235548        -6.4096
  39   0.0000      -0.122596        -3.3360
  40   0.0000       0.033929         0.9233
  41   0.0000       0.063622         1.7312
  42   0.0000       0.067590         1.8392

MULLIKEN ATOMIC CHARGES
-----------------------
   0 H :    0.170786
   1 O :   -0.220172
   2 O :   -0.377160
   3 S :    0.805948
   4 Cl:   -0.108199
   5 Cl:   -0.063769
   6 O :   -0.377960
   7 H :    0.170525
Sum of atomic charges:    0.0000000

LOEWDIN ATOMIC CHARGES
----------------------
   0 H :    0.071764
   1 O :   -0.058328
   2 O :   -0.415930
   3 S :    0.905245
   4 Cl:   -0.113872
   5 Cl:   -0.044340
   6 O :   -0.416483
   7 H :    0.071944

  Mayer bond orders larger than 0.100000
B(  0-H ,  1-O ) :   0.9738 B(  1-O ,  4-Cl) :   0.1221 B(  1-O ,  5-Cl) :   0.1015
B(  1-O ,  7-H ) :   0.9742 B(  2-O ,  3-S ) :   1.6482 B(  2-O ,  5-Cl) :   0.1387
B(  2-O ,  6-O ) :   0.1418 B(  3-S ,  4-Cl) :   0.2912 B(  3-S ,  5-Cl) :   0.5270
B(  3-S ,  6-O ) :   1.6483 B(  4-Cl,  5-Cl) :   0.4631 B(  5-Cl,  6-O ) :   0.1377

Dispersion correction           -0.016072264
FINAL SINGLE POINT ENERGY     -1544.462043164302
Dispersion correction             ... done (  0.0 sec)

DIPOLE MOMENT
-------------

Method             : SCF
Type of density    : Electron Density
Multiplicity       :   1
Irrep              :   0
Energy             : -1544.4459709001798728 Eh
Basis              : AO
                                X                 Y                 Z
Electronic contribution:      5.889252346       2.236897264      -4.542681569
Nuclear contribution   :     -6.199492133      -2.528903186       4.432690348
                        -----------------------------------------
Total Dipole Moment    :     -0.310239787      -0.292005922      -0.109991221
                        -----------------------------------------
Magnitude (a.u.)       :      0.440016196
Magnitude (Debye)      :      1.118432287

Rotational constants in cm-1:             0.076099             0.043324             0.033278
Rotational constants in MHz :          2281.392358          1298.829544           997.635521

                             ****ORCA TERMINATED NORMALLY****
TOTAL RUN TIME: 0 days 0 hours 0 minutes 14 seconds 123 msec
