                         Program Version 6.1.0  -  RELEASE   -
|  1> ! B3LYP def2-SVP d3 EnGrad
|  2> %pal nprocs 6 end
|  3> *xyz 0 1
|  4> C   -1.29767727526999 -0.79236685022667 -0.02565591055259
|  5> C   1.33718980243214 -0.72257867231418 0.04252706060667
|  6> C   -1.22891640538154 0.62307463039061 -0.06359756342841
|  7> C   1.19595694366944 0.6872324556345 -0.00042324750147
|  8> C   -0.02958271645043 1.3284188007571 -0.21160871861797
|  9> H   0.01457818611609 -1.04554586722694 0.50563460319801
| 10> H   -2.18430969195251 -1.22913982324908 0.45346343397404
| 11> H   2.21958806369502 -1.11284671580748 0.56749363034145
| 12> H   -0.99036199148353 -1.36404935712574 -0.90810282016084
| 13> H   1.1064318039942 -1.30817061306552 -0.85402715687449
| 14> H   -2.09393434344901 1.20319770176559 0.28054022445199
| 15> H   2.01033287546637 1.31146061184418 0.38737661118255
| 16> H   -0.05929525138625 2.42131369862365 -0.17362014661895
| 17> *
| 18>
| 19>                          ****END OF INPUT****

CARTESIAN COORDINATES (ANGSTROEM)
---------------------------------
  C     -1.297677   -0.792367   -0.025656
  C      1.337190   -0.722579    0.042527
  C     -1.228916    0.623075   -0.063598
  C      1.195957    0.687232   -0.000423
  C     -0.029583    1.328419   -0.211609
  H      0.014578   -1.045546    0.505635
  H     -2.184310   -1.229140    0.453463
  H      2.219588   -1.112847    0.567494
  H     -0.990362   -1.364049   -0.908103
  H      1.106432   -1.308171   -0.854027
  H     -2.093934    1.203198    0.280540
  H      2.010333    1.311461    0.387377
  H     -0.059295    2.421314   -0.173620

 Total Charge           Charge          ....    0
 Multiplicity           Mult            ....    1
 Number of Electrons    NEL             ....   38
 Basis Dimension        Dim             ....  110

ORBITAL ENERGIES
----------------

  NO   OCC          E(Eh)            E(eV)
   0   2.0000     -10.191141      -277.3151
   1   2.0000     -10.191121      -277.3145
   2   2.0000     -10.185146      -277.1519
   3   2.0000     -10.185127      -277.1514
   4   2.0000     -10.182643      -277.0838
   5   2.0000      -0.814704       -22.1692
   6   2.0000      -0.729348       -19.8466
   7   2.0000      -0.681359       -18.5407
   8   2.0000      -0.580830       -15.8052
   9   2.0000      -0.523594       -14.2477
  10   2.0000      -0.490889       -13.3578
  11   2.0000      -0.423739       -11.5305
  12   2.0000      -0.414410       -11.2767
  13   2.0000      -0.405893       -11.0449
  14   2.0000      -0.384344       -10.4585
  15   2.0000      -0.363853        -9.9010
  16   2.0000      -0.348719        -9.4891
  17   2.0000      -0.258970        -7.0469
  18   2.0000      -0.224522        -6.1096
  19   0.0000      -0.027961        -0.7609
  20   0.0000       0.022615         0.6154
  21   0.0000       0.067789         1.8446
  22   0.0000       0.088972         2.4211
  23   0.0000       0.101064         2.7501

MULLIKEN ATOMIC CHARGES
-----------------------
   0 C :   -0.022942
   1 C :   -0.022871
   2 C :   -0.068529
   3 C :   -0.068750
   4 C :    0.011742
   5 H :    0.071266
   6 H :    0.014643
   7 H :    0.014621
   8 H :    0.034045
   9 H :    0.034103
  10 H :    0.007567
  11 H :    0.007539
  12 H :   -0.012434
Sum of atomic charges:    0.0000000

LOEWDIN ATOMIC CHARGES
----------------------
   0 C :   -0.080526
   1 C :   -0.080482
   2 C :   -0.026721
   3 C :   -0.026747
   4 C :   -0.057094
   5 H :    0.086754
   6 H :    0.021389
   7 H :    0.021395
   8 H :    0.030437
   9 H :    0.030450
  10 H :    0.028062
  11 H :    0.028062
  12 H :    0.025022

  Mayer bond orders larger than 0.100000
B(  0-C ,  2-C ) :   1.4092 B(  0-C ,  3-C ) :   0.1174 B(  0-C ,  5-H ) :   0.4892
B(  0-C ,  6-H ) :   0.9419 B(  0-C ,  8-H ) :   0.9461 B(  1-C ,  2-C ) :   0.1173
B(  1-C ,  3-C ) :   1.4091 B(  1-C ,  5-H ) :   0.4894 B(  1-C ,  7-H ) :   0.9419
B(  1-C ,  9-H ) :   0.9461 B(  2-C ,  4-C ) :   1.4749 B(  2-C , 10-H ) :   0.9620
B(  3-C ,  4-C ) :   1.4750 B(  3-C , 11-H ) :   0.9620 B(  4-C , 12-H ) :   0.9597

Dispersion correction           -0.017587979
FINAL SINGLE POINT ENERGY      -194.989982201593
Dispersion correction             ... done (  0.0 sec)

DIPOLE MOMENT
-------------

Method             : SCF
Type of density    : Electron Density
Multiplicity       :   1
Irrep              :   0
Energy             :  -194.9723942222669564 Eh
Basis              : AO
                                X                 Y                 Z
Electronic contribution:     -0.049865276       2.390644587      -0.509390060
Nuclear contribution   :      0.049525187      -2.416685890       0.556459024
                        -----------------------------------------
Total Dipole Moment    :     -0.000340089      -0.026041303       0.047068964
                        -----------------------------------------
Magnitude (a.u.)       :      0.053793610
Magnitude (Debye)      :      0.136732491

Rotational constants in cm-1:             0.268880             0.167631             0.107120
Rotational constants in MHz :          8060.828485          5025.446500          3211.366584

                             ****ORCA TERMINATED NORMALLY****
TOTAL RUN TIME: 0 days 0 hours 0 minutes 13 seconds 830 msec
