                         Program Version 6.1.0  -  RELEASE   -
|  1> ! B3LYP def2-SVP d3 EnGrad
|  2> %pal nprocs 6 end
|  3> *xyz 0 1
|  4> C   1.1529515241001 -0.22368901581764 0.07399711570983
|  5> O   -0.03942892057804 0.52099064246944 0.15673553772041
|  6> N   -1.14815470313213 -0.32743670948487 -0.14422759107374
|  7> H   -1.77855594721834 -0.20745926262402 0.65475955088179
|  8> H   1.96791451192902 0.47795380534719 0.31217062791291
|  9> H   1.316083571291 -0.63659306878499 -0.9396207299746
| 10> H   1.17200062842823 -1.06112193661049 0.79682602129932
| 11> H   -1.61992866481984 0.1417245455054 -0.92411453247589
| 12> *
| 13>
| 14>                          ****END OF INPUT****

CARTESIAN COORDINATES (ANGSTROEM)
---------------------------------
  C      1.152952   -0.223689    0.073997
  O     -0.039429    0.520991    0.156736
  N     -1.148155   -0.327437   -0.144228
  H     -1.778556   -0.207459    0.654760
  H      1.967915    0.477954    0.312171
  H      1.316084   -0.636593   -0.939621
  H      1.172001   -1.061122    0.796826
  H     -1.619929    0.141725   -0.924115

 Total Charge           Charge          ....    0
 Multiplicity           Mult            ....    1
 Number of Electrons    NEL             ....   26
 Basis Dimension        Dim             ....   67

ORBITAL ENERGIES
----------------

  NO   OCC          E(Eh)            E(eV)
   0   2.0000     -19.144635      -520.9520
   1   2.0000     -14.352471      -390.5506
   2   2.0000     -10.219071      -278.0751
   3   2.0000      -1.043263       -28.3886
   4   2.0000      -0.804747       -21.8983
   5   2.0000      -0.638994       -17.3879
   6   2.0000      -0.500246       -13.6124
   7   2.0000      -0.489106       -13.3093
   8   2.0000      -0.437211       -11.8971
   9   2.0000      -0.414017       -11.2660
  10   2.0000      -0.355113        -9.6631
  11   2.0000      -0.256864        -6.9896
  12   2.0000      -0.248761        -6.7691
  13   0.0000       0.059109         1.6084
  14   0.0000       0.091250         2.4830
  15   0.0000       0.118812         3.2331
  16   0.0000       0.127062         3.4575
  17   0.0000       0.141174         3.8415

MULLIKEN ATOMIC CHARGES
-----------------------
   0 C :    0.213885
   1 O :   -0.386978
   2 N :   -0.037343
   3 H :    0.100704
   4 H :    0.015028
   5 H :   -0.003217
   6 H :   -0.002505
   7 H :    0.100426
Sum of atomic charges:    0.0000000

LOEWDIN ATOMIC CHARGES
----------------------
   0 C :    0.056994
   1 O :   -0.171078
   2 N :   -0.008198
   3 H :    0.051063
   4 H :    0.017112
   5 H :    0.001577
   6 H :    0.001821
   7 H :    0.050709

  Mayer bond orders larger than 0.100000
B(  0-C ,  1-O ) :   0.9871 B(  0-C ,  4-H ) :   0.9751 B(  0-C ,  5-H ) :   0.9699
B(  0-C ,  6-H ) :   0.9699 B(  1-O ,  2-N ) :   0.9516 B(  2-N ,  3-H ) :   0.9741
B(  2-N ,  7-H ) :   0.9738

Dispersion correction           -0.005515316
FINAL SINGLE POINT ENERGY      -170.797925458787
Dispersion correction             ... done (  0.0 sec)

DIPOLE MOMENT
-------------

Method             : SCF
Type of density    : Electron Density
Multiplicity       :   1
Irrep              :   0
Energy             :  -170.7924101423835452 Eh
Basis              : AO
                                X                 Y                 Z
Electronic contribution:     -1.403529688       1.178947174       0.183001669
Nuclear contribution   :      1.165333719      -1.176734220      -0.219964322
                        -----------------------------------------
Total Dipole Moment    :     -0.238195969       0.002212954      -0.036962653
                        -----------------------------------------
Magnitude (a.u.)       :      0.241056953
Magnitude (Debye)      :      0.612718082

Rotational constants in cm-1:             1.460538             0.333273             0.299837
Rotational constants in MHz :         43785.835653          9991.264271          8988.889070

                             ****ORCA TERMINATED NORMALLY****
TOTAL RUN TIME: 0 days 0 hours 0 minutes 6 seconds 945 msec
