                         Program Version 6.1.0  -  RELEASE   -
|  1> ! B3LYP def2-SVP d3 EnGrad
|  2> %pal nprocs 6 end
|  3> *xyz 0 1
|  4> C   -1.89813118289482 -1.092913559e-05 0.67283724924393
|  5> H   -1.81927900990935 0.93008829790452 1.24395384192263
|  6> H   -1.81928862688787 -0.93013595094994 1.2439135205899
|  7> C   -2.08256815554012 1.714239596e-05 -0.64903672857735
|  8> H   -2.15946120446719 -0.93143891532983 -1.21930657836398
|  9> H   -2.15945182434704 0.93149707318612 -1.21926876809717
| 10> C   1.14145573095093 7.70337433e-06 0.58027956769003
| 11> F   1.29359293029581 -1.03134258717932 -0.19856865440786
| 12> F   1.29360134279964 1.03132816573377 -0.19860645000014
| 13> *
| 14>
| 15>                          ****END OF INPUT****

CARTESIAN COORDINATES (ANGSTROEM)
---------------------------------
  C     -1.898131   -0.000011    0.672837
  H     -1.819279    0.930088    1.243954
  H     -1.819289   -0.930136    1.243914
  C     -2.082568    0.000017   -0.649037
  H     -2.159461   -0.931439   -1.219307
  H     -2.159452    0.931497   -1.219269
  C      1.141456    0.000008    0.580280
  F      1.293593   -1.031343   -0.198569
  F      1.293601    1.031328   -0.198606

 Total Charge           Charge          ....    0
 Multiplicity           Mult            ....    1
 Number of Electrons    NEL             ....   40
 Basis Dimension        Dim             ....   90

ORBITAL ENERGIES
----------------

  NO   OCC          E(Eh)            E(eV)
   0   2.0000     -24.752144      -673.5401
   1   2.0000     -24.752117      -673.5393
   2   2.0000     -10.369933      -282.1802
   3   2.0000     -10.194006      -277.3930
   4   2.0000     -10.193229      -277.3719
   5   2.0000      -1.311043       -35.6753
   6   2.0000      -1.231687       -33.5159
   7   2.0000      -0.755458       -20.5571
   8   2.0000      -0.688384       -18.7319
   9   2.0000      -0.592668       -16.1273
  10   2.0000      -0.575170       -15.6512
  11   2.0000      -0.546553       -14.8725
  12   2.0000      -0.538034       -14.6406
  13   2.0000      -0.471753       -12.8371
  14   2.0000      -0.466477       -12.6935
  15   2.0000      -0.442131       -12.0310
  16   2.0000      -0.424278       -11.5452
  17   2.0000      -0.357311        -9.7229
  18   2.0000      -0.299818        -8.1585
  19   2.0000      -0.270744        -7.3673
  20   0.0000      -0.074452        -2.0260
  21   0.0000       0.006560         0.1785
  22   0.0000       0.081556         2.2192
  23   0.0000       0.099445         2.7060
  24   0.0000       0.113367         3.0849

MULLIKEN ATOMIC CHARGES
-----------------------
   0 C :   -0.048557
   1 H :    0.036997
   2 H :    0.036996
   3 C :   -0.073113
   4 H :    0.033309
   5 H :    0.033309
   6 C :    0.191263
   7 F :   -0.105102
   8 F :   -0.105101
Sum of atomic charges:   -0.0000000

LOEWDIN ATOMIC CHARGES
----------------------
   0 C :   -0.044895
   1 H :    0.027124
   2 H :    0.027124
   3 C :   -0.049163
   4 H :    0.025599
   5 H :    0.025599
   6 C :   -0.018276
   7 F :    0.003444
   8 F :    0.003444

  Mayer bond orders larger than 0.100000
B(  0-C ,  1-H ) :   0.9621 B(  0-C ,  2-H ) :   0.9621 B(  0-C ,  3-C ) :   2.0447
B(  3-C ,  4-H ) :   0.9625 B(  3-C ,  5-H ) :   0.9625 B(  6-C ,  7-F ) :   1.2246
B(  6-C ,  8-F ) :   1.2246

Dispersion correction           -0.007675248
FINAL SINGLE POINT ENERGY      -315.903403699258
Dispersion correction             ... done (  0.0 sec)

DIPOLE MOMENT
-------------

Method             : SCF
Type of density    : Electron Density
Multiplicity       :   1
Irrep              :   0
Energy             :  -315.8957284510476597 Eh
Basis              : AO
                                X                 Y                 Z
Electronic contribution:      9.938572963      -0.000030726      -0.693299736
Nuclear contribution   :    -10.033677475       0.000025559       0.420087078
                        -----------------------------------------
Total Dipole Moment    :     -0.095104511      -0.000005167      -0.273212658
                        -----------------------------------------
Magnitude (a.u.)       :      0.289292282
Magnitude (Debye)      :      0.735322543

Rotational constants in cm-1:             0.255173             0.079444             0.072057
Rotational constants in MHz :          7649.901981          2381.665944          2160.222843

                             ****ORCA TERMINATED NORMALLY****
TOTAL RUN TIME: 0 days 0 hours 0 minutes 9 seconds 397 msec
