                         Program Version 6.1.0  -  RELEASE   -
|  1> ! B3LYP def2-SVP d3 EnGrad
|  2> %pal nprocs 6 end
|  3> *xyz 0 1
|  4> C   1.94383324660736 -0.08199378534908 -0.27849399233011
|  5> C   0.87764698717154 0.6237451140676 0.10847084337408
|  6> H   2.91312074306126 0.39859263632581 -0.43915646276167
|  7> H   1.90097976441911 -1.16250091130995 -0.44285978048836
|  8> H   -0.76103348423705 0.28011339738437 1.41372326678914
|  9> C   -0.52100593374588 0.10573819177395 0.34838579084785
| 10> O   -1.45677784630571 0.91656454623802 -0.35670126192148
| 11> C   -0.72405568972093 -1.37582410220042 0.04587695194836
| 12> H   -0.09031401059498 -2.01267632741677 0.68279325097548
| 13> H   -0.48425829095243 -1.5997883115746 -1.00744527678086
| 14> H   -1.77632838464531 -1.6435902897647 0.22103542628306
| 15> H   -1.22484802533106 0.86788349228147 -1.29497672276188
| 16> H   0.97035492427405 1.7066323495443 0.25921596682641
| 17> *
| 18>
| 19>                          ****END OF INPUT****

CARTESIAN COORDINATES (ANGSTROEM)
---------------------------------
  C      1.943833   -0.081994   -0.278494
  C      0.877647    0.623745    0.108471
  H      2.913121    0.398593   -0.439156
  H      1.900980   -1.162501   -0.442860
  H     -0.761033    0.280113    1.413723
  C     -0.521006    0.105738    0.348386
  O     -1.456778    0.916565   -0.356701
  C     -0.724056   -1.375824    0.045877
  H     -0.090314   -2.012676    0.682793
  H     -0.484258   -1.599788   -1.007445
  H     -1.776328   -1.643590    0.221035
  H     -1.224848    0.867883   -1.294977
  H      0.970355    1.706632    0.259216

 Total Charge           Charge          ....    0
 Multiplicity           Mult            ....    1
 Number of Electrons    NEL             ....   40
 Basis Dimension        Dim             ....  110

ORBITAL ENERGIES
----------------

  NO   OCC          E(Eh)            E(eV)
   0   2.0000     -19.122841      -520.3590
   1   2.0000     -10.234706      -278.5005
   2   2.0000     -10.187825      -277.2248
   3   2.0000     -10.186370      -277.1852
   4   2.0000     -10.178900      -276.9819
   5   2.0000      -1.002467       -27.2785
   6   2.0000      -0.780101       -21.2276
   7   2.0000      -0.715046       -19.4574
   8   2.0000      -0.632827       -17.2201
   9   2.0000      -0.551794       -15.0151
  10   2.0000      -0.495291       -13.4776
  11   2.0000      -0.458306       -12.4711
  12   2.0000      -0.441892       -12.0245
  13   2.0000      -0.431234       -11.7345
  14   2.0000      -0.386340       -10.5128
  15   2.0000      -0.371898       -10.1199
  16   2.0000      -0.352908        -9.6031
  17   2.0000      -0.319425        -8.6920
  18   2.0000      -0.282268        -7.6809
  19   2.0000      -0.259691        -7.0665
  20   0.0000       0.001995         0.0543
  21   0.0000       0.064728         1.7613
  22   0.0000       0.086301         2.3484
  23   0.0000       0.091773         2.4973
  24   0.0000       0.105117         2.8604

MULLIKEN ATOMIC CHARGES
-----------------------
   0 C :   -0.021767
   1 C :   -0.102972
   2 H :    0.021289
   3 H :    0.015733
   4 H :    0.002239
   5 C :    0.187756
   6 O :   -0.322817
   7 C :    0.025676
   8 H :    0.015016
   9 H :    0.000595
  10 H :    0.018693
  11 H :    0.155275
  12 H :    0.005284
Sum of atomic charges:   -0.0000000

LOEWDIN ATOMIC CHARGES
----------------------
   0 C :   -0.058853
   1 C :   -0.044289
   2 H :    0.025725
   3 H :    0.020818
   4 H :    0.027902
   5 C :    0.057465
   6 O :   -0.135545
   7 C :   -0.065752
   8 H :    0.027156
   9 H :    0.018756
  10 H :    0.029025
  11 H :    0.071092
  12 H :    0.026500

  Mayer bond orders larger than 0.100000
B(  0-C ,  1-C ) :   1.9987 B(  0-C ,  2-H ) :   0.9463 B(  0-C ,  3-H ) :   0.9392
B(  1-C ,  5-C ) :   1.0158 B(  1-C , 12-H ) :   0.9608 B(  4-H ,  5-C ) :   0.9012
B(  5-C ,  6-O ) :   0.9838 B(  5-C ,  7-C ) :   1.1028 B(  6-O , 11-H ) :   0.9845
B(  7-C ,  8-H ) :   0.9487 B(  7-C ,  9-H ) :   0.9516 B(  7-C , 10-H ) :   0.9575

Dispersion correction           -0.015495343
FINAL SINGLE POINT ENERGY      -232.132529595477
Dispersion correction             ... done (  0.1 sec)

DIPOLE MOMENT
-------------

Method             : SCF
Type of density    : Electron Density
Multiplicity       :   1
Irrep              :   0
Energy             :  -232.1170342523726333 Eh
Basis              : AO
                                X                 Y                 Z
Electronic contribution:     -1.258469505       2.926713592      -0.041822156
Nuclear contribution   :      1.640470076      -3.240327832      -0.197208098
                        -----------------------------------------
Total Dipole Moment    :      0.382000571      -0.313614240      -0.239030253
                        -----------------------------------------
Magnitude (a.u.)       :      0.549011648
Magnitude (Debye)      :      1.395476708

Rotational constants in cm-1:             0.256654             0.133312             0.097570
Rotational constants in MHz :          7694.286937          3996.580741          2925.075891

                             ****ORCA TERMINATED NORMALLY****
TOTAL RUN TIME: 0 days 0 hours 0 minutes 13 seconds 664 msec
