                         Program Version 6.1.0  -  RELEASE   -
|  1> ! B3LYP def2-SVP d3 EnGrad
|  2> %pal nprocs 6 end
|  3> *xyz 0 1
|  4> H   -0.11990169815027 0.25110075604897 -1.58693010341688
|  5> C   -0.46508153893358 0.68434433374426 -0.64592039493149
|  6> C   0.48512213974847 1.165194523667 0.25252133364107
|  7> H   -1.45779532531407 1.14214523174689 -0.65431576361729
|  8> H   0.2047695530486 1.92096384534753 1.00964727132977
|  9> O   1.65048767244967 0.63557330291993 0.37078585763324
| 10> H   1.47801914777026 -0.46572884254076 0.23740851445214
| 11> O   0.76656376819926 -1.56503495066048 0.15259248213812
| 12> C   -0.45058439684338 -1.20624320379385 0.21160933608077
| 13> H   -0.92222217607732 -0.97279998366242 1.19053140684538
| 14> H   -1.16937714589764 -1.58951501281709 -0.53792994015484
| 15> *
| 16>
| 17>                          ****END OF INPUT****

CARTESIAN COORDINATES (ANGSTROEM)
---------------------------------
  H     -0.119902    0.251101   -1.586930
  C     -0.465082    0.684344   -0.645920
  C      0.485122    1.165195    0.252521
  H     -1.457795    1.142145   -0.654316
  H      0.204770    1.920964    1.009647
  O      1.650488    0.635573    0.370786
  H      1.478019   -0.465729    0.237409
  O      0.766564   -1.565035    0.152592
  C     -0.450584   -1.206243    0.211609
  H     -0.922222   -0.972800    1.190531
  H     -1.169377   -1.589515   -0.537930

 Total Charge           Charge          ....    0
 Multiplicity           Mult            ....    1
 Number of Electrons    NEL             ....   40
 Basis Dimension        Dim             ....  100

ORBITAL ENERGIES
----------------

  NO   OCC          E(Eh)            E(eV)
   0   2.0000     -19.153486      -521.1928
   1   2.0000     -19.117036      -520.2010
   2   2.0000     -10.278658      -279.6965
   3   2.0000     -10.277381      -279.6617
   4   2.0000     -10.201636      -277.6006
   5   2.0000      -1.062779       -28.9197
   6   2.0000      -1.006762       -27.3954
   7   2.0000      -0.756946       -20.5976
   8   2.0000      -0.628516       -17.1028
   9   2.0000      -0.610804       -16.6208
  10   2.0000      -0.525667       -14.3041
  11   2.0000      -0.499473       -13.5913
  12   2.0000      -0.463530       -12.6133
  13   2.0000      -0.444179       -12.0867
  14   2.0000      -0.430237       -11.7073
  15   2.0000      -0.406893       -11.0721
  16   2.0000      -0.358897        -9.7661
  17   2.0000      -0.332168        -9.0388
  18   2.0000      -0.265935        -7.2365
  19   2.0000      -0.245344        -6.6761
  20   0.0000      -0.052489        -1.4283
  21   0.0000       0.036348         0.9891
  22   0.0000       0.064755         1.7621
  23   0.0000       0.081552         2.2191
  24   0.0000       0.111068         3.0223

MULLIKEN ATOMIC CHARGES
-----------------------
   0 H :    0.066682
   1 C :   -0.132617
   2 C :    0.148201
   3 H :    0.032492
   4 H :    0.020560
   5 O :   -0.250509
   6 H :    0.244186
   7 O :   -0.370523
   8 C :    0.201583
   9 H :    0.016694
  10 H :    0.023251
Sum of atomic charges:    0.0000000

LOEWDIN ATOMIC CHARGES
----------------------
   0 H :    0.043474
   1 C :   -0.117511
   2 C :    0.114264
   3 H :    0.029534
   4 H :    0.016372
   5 O :   -0.069835
   6 H :    0.055292
   7 O :   -0.209481
   8 C :    0.135894
   9 H :   -0.006924
  10 H :    0.008921

  Mayer bond orders larger than 0.100000
B(  0-H ,  1-C ) :   0.9349 B(  1-C ,  2-C ) :   1.4284 B(  1-C ,  3-H ) :   0.9440
B(  1-C ,  8-C ) :   0.4943 B(  2-C ,  4-H ) :   0.9615 B(  2-C ,  5-O ) :   1.4604
B(  5-O ,  6-H ) :   0.6389 B(  6-H ,  7-O ) :   0.3940 B(  7-O ,  8-C ) :   1.5268
B(  8-C ,  9-H ) :   0.9244 B(  8-C , 10-H ) :   0.9210

Dispersion correction           -0.013337024
FINAL SINGLE POINT ENERGY      -267.967708051133
Dispersion correction             ... done (  0.1 sec)

DIPOLE MOMENT
-------------

Method             : SCF
Type of density    : Electron Density
Multiplicity       :   1
Irrep              :   0
Energy             :  -267.9543710272783983 Eh
Basis              : AO
                                X                 Y                 Z
Electronic contribution:      3.171363971      -0.260146104       0.701894988
Nuclear contribution   :     -4.233874886       0.778386538      -0.759265141
                        -----------------------------------------
Total Dipole Moment    :     -1.062510916       0.518240434      -0.057370153
                        -----------------------------------------
Magnitude (a.u.)       :      1.183551405
Magnitude (Debye)      :      3.008348594

Rotational constants in cm-1:             0.257272             0.160587             0.110492
Rotational constants in MHz :          7712.815108          4814.265238          3312.472940

                             ****ORCA TERMINATED NORMALLY****
TOTAL RUN TIME: 0 days 0 hours 0 minutes 12 seconds 190 msec
