                         Program Version 6.1.0  -  RELEASE   -
|  1> ! B3LYP def2-SVP d3 EnGrad
|  2> %pal nprocs 6 end
|  3> *xyz 0 1
|  4> C   -0.22443049658052 0.6398870685122 0.25435943621187
|  5> C   -0.98797875392693 0.21365138706624 1.35082048066996
|  6> C   -2.19605435433457 -0.46454353538057 1.16450396835375
|  7> C   -2.65585061304256 -0.73106175650377 -0.12778431694218
|  8> C   -1.90121420015769 -0.3136078481692 -1.22873978948709
|  9> C   -0.69664876606394 0.36708340984875 -1.03965562133761
| 10> O   2.32776963478715 -0.19880628799282 -1.11800494811037
| 11> C   2.29042568070045 -0.98532816511712 0.07055537945868
| 12> C   2.31822874814344 0.48240770156753 0.12916723467675
| 13> C   1.10070301863479 1.33392145363596 0.45464058081222
| 14> H   -0.63083956872896 0.41630079344963 2.36496295033312
| 15> H   -2.77942662217478 -0.7852017039952 2.03149725822409
| 16> H   -3.5998873469227 -1.26097181283611 -0.27737530768214
| 17> H   -2.25412758203925 -0.51899735499536 -2.24287644695968
| 18> H   -0.10211966047509 0.67747796941357 -1.90084295982628
| 19> H   1.34549170019515 -1.51113179270023 0.25515264135799
| 20> H   3.27570486217527 0.9645693301362 0.38025251785719
| 21> H   1.15353588809175 2.2389146369966 -0.1757545380786
| 22> H   1.19646919485329 1.67554958800429 1.49883397990302
| 23> H   3.20248823686574 -1.55627608094062 0.28998250056531
| 24> *
| 25>
| 26>                          ****END OF INPUT****

CARTESIAN COORDINATES (ANGSTROEM)
---------------------------------
  C     -0.224430    0.639887    0.254359
  C     -0.987979    0.213651    1.350820
  C     -2.196054   -0.464544    1.164504
  C     -2.655851   -0.731062   -0.127784
  C     -1.901214   -0.313608   -1.228740
  C     -0.696649    0.367083   -1.039656
  O      2.327770   -0.198806   -1.118005
  C      2.290426   -0.985328    0.070555
  C      2.318229    0.482408    0.129167
  C      1.100703    1.333921    0.454641
  H     -0.630840    0.416301    2.364963
  H     -2.779427   -0.785202    2.031497
  H     -3.599887   -1.260972   -0.277375
  H     -2.254128   -0.518997   -2.242876
  H     -0.102120    0.677478   -1.900843
  H      1.345492   -1.511132    0.255153
  H      3.275705    0.964569    0.380253
  H      1.153536    2.238915   -0.175755
  H      1.196469    1.675550    1.498834
  H      3.202488   -1.556276    0.289983

 Total Charge           Charge          ....    0
 Multiplicity           Mult            ....    1
 Number of Electrons    NEL             ....   72
 Basis Dimension        Dim             ....  190

ORBITAL ENERGIES
----------------

  NO   OCC          E(Eh)            E(eV)
   0   2.0000     -19.138500      -520.7851
   1   2.0000     -10.240433      -278.6563
   2   2.0000     -10.232220      -278.4329
   3   2.0000     -10.194867      -277.4164
   4   2.0000     -10.192334      -277.3475
   5   2.0000     -10.187143      -277.2063
   6   2.0000     -10.186536      -277.1897
   7   2.0000     -10.185914      -277.1728
   8   2.0000     -10.185537      -277.1626
   9   2.0000     -10.182176      -277.0711
  10   2.0000      -1.065163       -28.9846
  11   2.0000      -0.846584       -23.0367
  12   2.0000      -0.774249       -21.0684
  13   2.0000      -0.732801       -19.9405
  14   2.0000      -0.704040       -19.1579
  15   2.0000      -0.648737       -17.6530
  16   2.0000      -0.604962       -16.4618
  17   2.0000      -0.596537       -16.2326
  18   2.0000      -0.564065       -15.3490
  19   2.0000      -0.510974       -13.9043
  20   2.0000      -0.502829       -13.6827
  21   2.0000      -0.471714       -12.8360
  22   2.0000      -0.461188       -12.5496
  23   2.0000      -0.443185       -12.0597
  24   2.0000      -0.418498       -11.3879
  25   2.0000      -0.413379       -11.2486
  26   2.0000      -0.408610       -11.1188
  27   2.0000      -0.380503       -10.3540
  28   2.0000      -0.374091       -10.1795
  29   2.0000      -0.358229        -9.7479
  30   2.0000      -0.340142        -9.2557
  31   2.0000      -0.337522        -9.1844
  32   2.0000      -0.301961        -8.2168
  33   2.0000      -0.271330        -7.3833
  34   2.0000      -0.250177        -6.8077
  35   2.0000      -0.244276        -6.6471
  36   0.0000      -0.007185        -0.1955
  37   0.0000      -0.005316        -0.1447
  38   0.0000       0.063091         1.7168
  39   0.0000       0.075660         2.0588
  40   0.0000       0.091290         2.4841

MULLIKEN ATOMIC CHARGES
-----------------------
   0 C :   -0.092624
   1 C :   -0.009650
   2 C :    0.020275
   3 C :    0.020849
   4 C :    0.017625
   5 C :    0.014772
   6 O :   -0.331371
   7 C :    0.176404
   8 C :   -0.009710
   9 C :    0.219839
  10 H :   -0.032614
  11 H :   -0.020606
  12 H :   -0.018421
  13 H :   -0.017434
  14 H :   -0.018723
  15 H :    0.038341
  16 H :    0.012486
  17 H :    0.012385
  18 H :   -0.003742
  19 H :    0.021918
Sum of atomic charges:    0.0000000

LOEWDIN ATOMIC CHARGES
----------------------
   0 C :   -0.027628
   1 C :   -0.031690
   2 C :   -0.027680
   3 C :   -0.029576
   4 C :   -0.024409
   5 C :   -0.018538
   6 O :   -0.181844
   7 C :    0.069005
   8 C :    0.055749
   9 C :   -0.027796
  10 H :    0.022105
  11 H :    0.025819
  12 H :    0.025653
  13 H :    0.026882
  14 H :    0.027058
  15 H :    0.018590
  16 H :    0.014597
  17 H :    0.037138
  18 H :    0.031708
  19 H :    0.014856

  Mayer bond orders larger than 0.100000
B(  0-C ,  1-C ) :   1.3947 B(  0-C ,  5-C ) :   1.3871 B(  0-C ,  9-C ) :   1.0336
B(  1-C ,  2-C ) :   1.3790 B(  1-C , 10-H ) :   0.9830 B(  2-C ,  3-C ) :   1.3875
B(  2-C , 11-H ) :   0.9828 B(  3-C ,  4-C ) :   1.3783 B(  3-C , 12-H ) :   0.9850
B(  4-C ,  5-C ) :   1.3836 B(  4-C , 13-H ) :   0.9841 B(  5-C , 14-H ) :   0.9846
B(  6-O ,  7-C ) :   0.9786 B(  6-O ,  8-C ) :   0.9739 B(  7-C ,  8-C ) :   1.0949
B(  7-C , 15-H ) :   0.9248 B(  7-C , 19-H ) :   0.9436 B(  8-C ,  9-C ) :   1.0215
B(  8-C , 16-H ) :   0.9402 B(  9-C , 17-H ) :   0.9090 B(  9-C , 18-H ) :   0.9162

Dispersion correction           -0.035466989
FINAL SINGLE POINT ENERGY      -423.622602509560
Dispersion correction             ... done (  0.0 sec)

DIPOLE MOMENT
-------------

Method             : SCF
Type of density    : Electron Density
Multiplicity       :   1
Irrep              :   0
Energy             :  -423.5871355210207412 Eh
Basis              : AO
                                X                 Y                 Z
Electronic contribution:     -0.582965900      -0.030172345      -1.647605163
Nuclear contribution   :      0.610467562       0.058747156       2.300887071
                        -----------------------------------------
Total Dipole Moment    :      0.027501662       0.028574811       0.653281908
                        -----------------------------------------
Magnitude (a.u.)       :      0.654484616
Magnitude (Debye)      :      1.663567688

Rotational constants in cm-1:             0.094773             0.030458             0.027734
Rotational constants in MHz :          2841.234311           913.119427           831.445873

                             ****ORCA TERMINATED NORMALLY****
TOTAL RUN TIME: 0 days 0 hours 0 minutes 34 seconds 289 msec
