                         Program Version 6.1.0  -  RELEASE   -
|  1> ! B3LYP def2-SVP d3 EnGrad
|  2> %pal nprocs 6 end
|  3> *xyz 0 1
|  4> N   1.42488024580782 -0.47824765166288 -0.1648622740797
|  5> B   0.55518941452012 0.81845612845887 0.34556592531439
|  6> N   -0.89289207990499 0.49883669374977 -0.02502182454997
|  7> B   -1.5803950208784 -0.69998549126378 0.0585266436206
|  8> H   1.41499487924879 -0.55775421486226 -1.18530983474479
|  9> H   1.00035817267437 1.78343072389407 -0.26282843324166
| 10> H   0.78730816854746 0.87191196761478 1.54918610832621
| 11> H   0.9862647142669 -1.32694703219733 0.20969793821909
| 12> H   2.39403681805061 -0.43431137502326 0.15586000168297
| 13> H   -1.42213275205609 1.30212707968228 -0.35305510766318
| 14> H   -2.74767737543212 -0.79012923305104 -0.25026734633958
| 15> H   -0.99201918484448 -1.70583859533922 0.43279720345564
| 16> *
| 17>
| 18>                          ****END OF INPUT****

CARTESIAN COORDINATES (ANGSTROEM)
---------------------------------
  N      1.424880   -0.478248   -0.164862
  B      0.555189    0.818456    0.345566
  N     -0.892892    0.498837   -0.025022
  B     -1.580395   -0.699985    0.058527
  H      1.414995   -0.557754   -1.185310
  H      1.000358    1.783431   -0.262828
  H      0.787308    0.871912    1.549186
  H      0.986265   -1.326947    0.209698
  H      2.394037   -0.434311    0.155860
  H     -1.422133    1.302127   -0.353055
  H     -2.747677   -0.790129   -0.250267
  H     -0.992019   -1.705839    0.432797

 Total Charge           Charge          ....    0
 Multiplicity           Mult            ....    1
 Number of Electrons    NEL             ....   32
 Basis Dimension        Dim             ....   96

ORBITAL ENERGIES
----------------

  NO   OCC          E(Eh)            E(eV)
   0   2.0000     -14.408809      -392.0836
   1   2.0000     -14.285238      -388.7211
   2   2.0000      -6.724403      -182.9803
   3   2.0000      -6.720513      -182.8745
   4   2.0000      -0.942059       -25.6347
   5   2.0000      -0.812934       -22.1211
   6   2.0000      -0.558205       -15.1895
   7   2.0000      -0.552159       -15.0250
   8   2.0000      -0.524856       -14.2820
   9   2.0000      -0.486307       -13.2331
  10   2.0000      -0.410656       -11.1745
  11   2.0000      -0.379130       -10.3167
  12   2.0000      -0.335941        -9.1414
  13   2.0000      -0.304495        -8.2857
  14   2.0000      -0.289632        -7.8813
  15   2.0000      -0.239456        -6.5159
  16   0.0000       0.015953         0.4341
  17   0.0000       0.022433         0.6104
  18   0.0000       0.078755         2.1430
  19   0.0000       0.085830         2.3356
  20   0.0000       0.098584         2.6826

MULLIKEN ATOMIC CHARGES
-----------------------
   0 N :    0.026918
   1 B :   -0.056047
   2 N :   -0.028816
   3 B :   -0.085133
   4 H :    0.142110
   5 H :   -0.111248
   6 H :   -0.114409
   7 H :    0.138045
   8 H :    0.146594
   9 H :    0.120719
  10 H :   -0.059105
  11 H :   -0.119629
Sum of atomic charges:    0.0000000

LOEWDIN ATOMIC CHARGES
----------------------
   0 N :    0.227359
   1 B :   -0.268809
   2 N :    0.052873
   3 B :   -0.169696
   4 H :    0.106594
   5 H :   -0.067961
   6 H :   -0.067780
   7 H :    0.106387
   8 H :    0.109385
   9 H :    0.090395
  10 H :   -0.051352
  11 H :   -0.067396

  Mayer bond orders larger than 0.100000
B(  0-N ,  1-B ) :   0.7556 B(  0-N ,  4-H ) :   0.9651 B(  0-N ,  7-H ) :   0.9538
B(  0-N ,  8-H ) :   0.9614 B(  1-B ,  2-N ) :   1.0402 B(  1-B ,  5-H ) :   0.9481
B(  1-B ,  6-H ) :   0.9247 B(  2-N ,  3-B ) :   1.6488 B(  2-N ,  9-H ) :   0.9276
B(  3-B , 10-H ) :   0.9627 B(  3-B , 11-H ) :   0.9226

Dispersion correction           -0.012875519
FINAL SINGLE POINT ENERGY      -163.871771208646
Dispersion correction             ... done (  0.0 sec)

DIPOLE MOMENT
-------------

Method             : SCF
Type of density    : Electron Density
Multiplicity       :   1
Irrep              :   0
Energy             :  -163.8588956895733588 Eh
Basis              : AO
                                X                 Y                 Z
Electronic contribution:     -0.895381356       0.223347444      -0.483306281
Nuclear contribution   :      2.340025281      -0.967279610      -0.237618347
                        -----------------------------------------
Total Dipole Moment    :      1.444643926      -0.743932166      -0.720924628
                        -----------------------------------------
Magnitude (a.u.)       :      1.777684859
Magnitude (Debye)      :      4.518515820

Rotational constants in cm-1:             0.460265             0.174796             0.137929
Rotational constants in MHz :         13798.385222          5240.249107          4135.018446

                             ****ORCA TERMINATED NORMALLY****
TOTAL RUN TIME: 0 days 0 hours 0 minutes 10 seconds 908 msec
