                         Program Version 6.1.0  -  RELEASE   -
|  1> ! B3LYP def2-SVP d3 EnGrad
|  2> %pal nprocs 6 end
|  3> *xyz 0 1
|  4> H   -0.10115678291176 -1.0181967231628 -1.08503101801624
|  5> C   0.32321395109317 -0.36475757753876 -0.31774976872194
|  6> H   1.40529621987299 -0.45962316115566 -0.19331756534606
|  7> C   -0.288401233567 0.91898561324613 -0.0877744150872
|  8> H   0.07281661066576 -1.4947078593966 0.81422679607786
|  9> H   -0.31656693669744 -0.33976033297068 0.74497755211317
| 10> H   0.22432558445911 1.66479319984566 0.52022607024047
| 11> H   -1.31952741291482 1.09326684113272 -0.39555765126004
| 12> *
| 13>
| 14>                          ****END OF INPUT****

CARTESIAN COORDINATES (ANGSTROEM)
---------------------------------
  H     -0.101157   -1.018197   -1.085031
  C      0.323214   -0.364758   -0.317750
  H      1.405296   -0.459623   -0.193318
  C     -0.288401    0.918986   -0.087774
  H      0.072817   -1.494708    0.814227
  H     -0.316567   -0.339760    0.744978
  H      0.224326    1.664793    0.520226
  H     -1.319527    1.093267   -0.395558

 Total Charge           Charge          ....    0
 Multiplicity           Mult            ....    1
 Number of Electrons    NEL             ....   18
 Basis Dimension        Dim             ....   58

ORBITAL ENERGIES
----------------

  NO   OCC          E(Eh)            E(eV)
   0   2.0000     -10.256860      -279.1034
   1   2.0000     -10.168672      -276.7036
   2   2.0000      -0.801815       -21.8185
   3   2.0000      -0.592980       -16.1358
   4   2.0000      -0.479543       -13.0490
   5   2.0000      -0.477412       -12.9910
   6   2.0000      -0.407031       -11.0759
   7   2.0000      -0.370253       -10.0751
   8   2.0000      -0.177026        -4.8171
   9   0.0000      -0.006634        -0.1805
  10   0.0000       0.068403         1.8614
  11   0.0000       0.082269         2.2386
  12   0.0000       0.097095         2.6421
  13   0.0000       0.116820         3.1788

MULLIKEN ATOMIC CHARGES
-----------------------
   0 H :    0.073771
   1 C :    0.068855
   2 H :    0.073857
   3 C :   -0.248149
   4 H :   -0.227284
   5 H :    0.189936
   6 H :    0.034439
   7 H :    0.034573
Sum of atomic charges:    0.0000000

LOEWDIN ATOMIC CHARGES
----------------------
   0 H :    0.043189
   1 C :    0.085697
   2 H :    0.043115
   3 C :   -0.235998
   4 H :   -0.146573
   5 H :    0.173194
   6 H :    0.018697
   7 H :    0.018680

  Mayer bond orders larger than 0.100000
B(  0-H ,  1-C ) :   0.9661 B(  1-C ,  2-H ) :   0.9660 B(  1-C ,  3-C ) :   1.1323
B(  1-C ,  4-H ) :   0.3171 B(  1-C ,  5-H ) :   0.5667 B(  3-C ,  4-H ) :   0.4299
B(  3-C ,  5-H ) :   0.2664 B(  3-C ,  6-H ) :   0.9801 B(  3-C ,  7-H ) :   0.9800
B(  4-H ,  5-H ) :   0.1506

Dispersion correction           -0.006222243
FINAL SINGLE POINT ENERGY       -79.520510473007
Dispersion correction             ... done (  0.1 sec)

DIPOLE MOMENT
-------------

Method             : SCF
Type of density    : Electron Density
Multiplicity       :   1
Irrep              :   0
Energy             :   -79.5142882304882050 Eh
Basis              : AO
                                X                 Y                 Z
Electronic contribution:      0.198897783       1.644359973      -1.366508025
Nuclear contribution   :     -0.104365790      -1.661532070       1.215729615
                        -----------------------------------------
Total Dipole Moment    :      0.094531993      -0.017172097      -0.150778409
                        -----------------------------------------
Magnitude (a.u.)       :      0.178788443
Magnitude (Debye)      :      0.454444107

Rotational constants in cm-1:             2.466226             0.692952             0.688836
Rotational constants in MHz :         73935.594858         20774.181799         20650.773927

                             ****ORCA TERMINATED NORMALLY****
TOTAL RUN TIME: 0 days 0 hours 0 minutes 6 seconds 575 msec
