                         Program Version 6.1.0  -  RELEASE   -
|  1> ! B3LYP def2-SVP d3 EnGrad
|  2> %pal nprocs 6 end
|  3> *xyz 0 1
|  4> C   -1.05346261651819 -1.85173935124537 -0.01525321404416
|  5> C   -1.65160286281243 -0.74020487507915 -0.47052016204171
|  6> C   -1.57584891676437 0.59795088550875 0.14106719518978
|  7> C   -0.48846773107233 1.15072060907111 0.71100575228502
|  8> C   1.54119796284441 0.38581223317373 0.60967724276397
|  9> C   2.00061212276803 0.38605978439748 -0.74222689047025
| 10> H   -2.28879265208743 -0.82014203991647 -1.36154440166209
| 11> H   -0.47227722938872 -1.84698811326973 0.91081961584749
| 12> H   -1.15522931085299 -2.80734025880193 -0.53698338449068
| 13> H   1.88352945935809 1.16778303755695 1.29042740554786
| 14> H   1.28319996765143 -0.55649083718508 1.09068091011565
| 15> H   1.85401994808336 -0.49320783004165 -1.36921287126261
| 16> H   2.49230269482315 1.2679657546405 -1.15378428731956
| 17> H   -0.5485554216759 2.16874991346415 1.12389107575782
| 18> H   0.69054513295463 0.8109183647719 -0.2892265349349
| 19> H   -2.51117054731074 1.1801527229548 0.06118254871836
| 20> *
| 21>
| 22>                          ****END OF INPUT****

CARTESIAN COORDINATES (ANGSTROEM)
---------------------------------
  C     -1.053463   -1.851739   -0.015253
  C     -1.651603   -0.740205   -0.470520
  C     -1.575849    0.597951    0.141067
  C     -0.488468    1.150721    0.711006
  C      1.541198    0.385812    0.609677
  C      2.000612    0.386060   -0.742227
  H     -2.288793   -0.820142   -1.361544
  H     -0.472277   -1.846988    0.910820
  H     -1.155229   -2.807340   -0.536983
  H      1.883529    1.167783    1.290427
  H      1.283200   -0.556491    1.090681
  H      1.854020   -0.493208   -1.369213
  H      2.492303    1.267966   -1.153784
  H     -0.548555    2.168750    1.123891
  H      0.690545    0.810918   -0.289227
  H     -2.511171    1.180153    0.061183

 Total Charge           Charge          ....    0
 Multiplicity           Mult            ....    1
 Number of Electrons    NEL             ....   46
 Basis Dimension        Dim             ....  134

ORBITAL ENERGIES
----------------

  NO   OCC          E(Eh)            E(eV)
   0   2.0000     -10.249928      -278.9147
   1   2.0000     -10.190805      -277.3059
   2   2.0000     -10.187792      -277.2239
   3   2.0000     -10.184450      -277.1330
   4   2.0000     -10.169691      -276.7314
   5   2.0000     -10.162271      -276.5295
   6   2.0000      -0.805122       -21.9085
   7   2.0000      -0.778817       -21.1927
   8   2.0000      -0.705219       -19.1900
   9   2.0000      -0.601084       -16.3563
  10   2.0000      -0.580807       -15.8045
  11   2.0000      -0.508429       -13.8351
  12   2.0000      -0.483968       -13.1694
  13   2.0000      -0.469628       -12.7792
  14   2.0000      -0.460321       -12.5260
  15   2.0000      -0.416579       -11.3357
  16   2.0000      -0.411391       -11.1945
  17   2.0000      -0.372479       -10.1357
  18   2.0000      -0.367215        -9.9924
  19   2.0000      -0.346014        -9.4155
  20   2.0000      -0.300765        -8.1842
  21   2.0000      -0.233841        -6.3631
  22   2.0000      -0.174110        -4.7378
  23   0.0000      -0.030609        -0.8329
  24   0.0000       0.001432         0.0390
  25   0.0000       0.051124         1.3912
  26   0.0000       0.070111         1.9078
  27   0.0000       0.080635         2.1942

MULLIKEN ATOMIC CHARGES
-----------------------
   0 C :   -0.033695
   1 C :   -0.037223
   2 C :   -0.000702
   3 C :   -0.258495
   4 C :    0.103080
   5 C :   -0.181217
   6 H :    0.003050
   7 H :    0.021910
   8 H :    0.022804
   9 H :    0.057343
  10 H :    0.059549
  11 H :    0.036471
  12 H :    0.032104
  13 H :    0.005128
  14 H :    0.169799
  15 H :    0.000095
Sum of atomic charges:   -0.0000000

LOEWDIN ATOMIC CHARGES
----------------------
   0 C :   -0.050122
   1 C :   -0.033430
   2 C :   -0.052349
   3 C :   -0.183216
   4 C :    0.118309
   5 C :   -0.191954
   6 H :    0.027403
   7 H :    0.020303
   8 H :    0.023993
   9 H :    0.041730
  10 H :    0.038681
  11 H :    0.023215
  12 H :    0.022000
  13 H :    0.008380
  14 H :    0.165494
  15 H :    0.021562

  Mayer bond orders larger than 0.100000
B(  0-C ,  1-C ) :   1.9576 B(  0-C ,  7-H ) :   0.9509 B(  0-C ,  8-H ) :   0.9487
B(  1-C ,  2-C ) :   1.0715 B(  1-C ,  6-H ) :   0.9496 B(  2-C ,  3-C ) :   1.8445
B(  2-C , 15-H ) :   0.9336 B(  3-C ,  4-C ) :   0.3701 B(  3-C ,  5-C ) :   0.2824
B(  3-C , 13-H ) :   0.9129 B(  3-C , 14-H ) :   0.1748 B(  4-C ,  5-C ) :   1.1986
B(  4-C ,  9-H ) :   0.9490 B(  4-C , 10-H ) :   0.9507 B(  4-C , 14-H ) :   0.4341
B(  5-C , 11-H ) :   0.9669 B(  5-C , 12-H ) :   0.9682 B(  5-C , 14-H ) :   0.3690

Dispersion correction           -0.021803691
FINAL SINGLE POINT ENERGY      -234.114169546808
Dispersion correction             ... done (  0.1 sec)

DIPOLE MOMENT
-------------

Method             : SCF
Type of density    : Electron Density
Multiplicity       :   1
Irrep              :   0
Energy             :  -234.0923658559217415 Eh
Basis              : AO
                                X                 Y                 Z
Electronic contribution:     -2.568255957      -0.158855169       0.580862133
Nuclear contribution   :      2.694289316       0.156711113      -0.513037036
                        -----------------------------------------
Total Dipole Moment    :      0.126033359      -0.002144055       0.067825096
                        -----------------------------------------
Magnitude (a.u.)       :      0.143140659
Magnitude (Debye)      :      0.363834641

Rotational constants in cm-1:             0.157364             0.075364             0.059731
Rotational constants in MHz :          4717.668832          2259.348124          1790.686536

                             ****ORCA TERMINATED NORMALLY****
TOTAL RUN TIME: 0 days 0 hours 0 minutes 19 seconds 27 msec
