                         Program Version 6.1.0  -  RELEASE   -
|  1> ! B3LYP def2-SVP d3 EnGrad
|  2> %pal nprocs 6 end
|  3> *xyz 0 1
|  4> C   1.34812727776408 -0.21333558395102 -0.17882149967015
|  5> C   -0.02449378618397 0.40485640129669 0.20288714819619
|  6> O   0.04565850741344 0.94934219264539 1.48791303186137
|  7> F   1.64421186296151 -1.27090673679944 0.5708481448246
|  8> F   2.32183320279194 0.69798432128353 -0.0097502732666
|  9> F   1.36186432108382 -0.5912634475544 -1.46902166707675
| 10> O   -0.8955028855559 -0.67770433889809 0.22545084812808
| 11> C   -2.25150171259534 -0.42498318917302 0.59077036738698
| 12> C   -3.16951121636689 -0.43774073879182 -0.62268668939812
| 13> N   -0.30746635017217 1.45894204396418 -0.73446270106052
| 14> H   -2.53496479025414 -1.22678384113028 1.2911766456919
| 15> H   -2.32460114050568 0.52256676410811 1.14956447679518
| 16> H   -4.22218325893111 -0.33823212107183 -0.311166861062
| 17> H   -2.9363526254887 0.38782605281264 -1.31299490988227
| 18> H   -3.0602161983579 -1.38255862586206 -1.17736721233291
| 19> H   -0.37428578000847 1.10268274154526 -1.68633754934656
| 20> H   -1.17606886910044 1.93018095786838 -0.48918733375104
| 21> H   0.59131744150592 1.74709514770773 1.42788103396267
| 22> *
| 23>
| 24>                          ****END OF INPUT****

CARTESIAN COORDINATES (ANGSTROEM)
---------------------------------
  C      1.348127   -0.213336   -0.178821
  C     -0.024494    0.404856    0.202887
  O      0.045659    0.949342    1.487913
  F      1.644212   -1.270907    0.570848
  F      2.321833    0.697984   -0.009750
  F      1.361864   -0.591263   -1.469022
  O     -0.895503   -0.677704    0.225451
  C     -2.251502   -0.424983    0.590770
  C     -3.169511   -0.437741   -0.622687
  N     -0.307466    1.458942   -0.734463
  H     -2.534965   -1.226784    1.291177
  H     -2.324601    0.522567    1.149564
  H     -4.222183   -0.338232   -0.311167
  H     -2.936353    0.387826   -1.312995
  H     -3.060216   -1.382559   -1.177367
  H     -0.374286    1.102683   -1.686338
  H     -1.176069    1.930181   -0.489187
  H      0.591317    1.747095    1.427881

 Total Charge           Charge          ....    0
 Multiplicity           Mult            ....    1
 Number of Electrons    NEL             ....   82
 Basis Dimension        Dim             ....  180

ORBITAL ENERGIES
----------------

  NO   OCC          E(Eh)            E(eV)
   0   2.0000     -24.714008      -672.5023
   1   2.0000     -24.712818      -672.4700
   2   2.0000     -24.709912      -672.3909
   3   2.0000     -19.154227      -521.2130
   4   2.0000     -19.145745      -520.9822
   5   2.0000     -14.331700      -389.9854
   6   2.0000     -10.419461      -283.5279
   7   2.0000     -10.333499      -281.1888
   8   2.0000     -10.242020      -278.6995
   9   2.0000     -10.189672      -277.2751
  10   2.0000      -1.293235       -35.1907
  11   2.0000      -1.201267       -32.6881
  12   2.0000      -1.200103       -32.6565
  13   2.0000      -1.085178       -29.5292
  14   2.0000      -1.009594       -27.4724
  15   2.0000      -0.887498       -24.1500
  16   2.0000      -0.771410       -20.9911
  17   2.0000      -0.718924       -19.5629
  18   2.0000      -0.653506       -17.7828
  19   2.0000      -0.611886       -16.6503
  20   2.0000      -0.597369       -16.2552
  21   2.0000      -0.584932       -15.9168
  22   2.0000      -0.583684       -15.8829
  23   2.0000      -0.534853       -14.5541
  24   2.0000      -0.517779       -14.0895
  25   2.0000      -0.494832       -13.4651
  26   2.0000      -0.472409       -12.8549
  27   2.0000      -0.461769       -12.5654
  28   2.0000      -0.459936       -12.5155
  29   2.0000      -0.431637       -11.7454
  30   2.0000      -0.429605       -11.6902
  31   2.0000      -0.420167       -11.4333
  32   2.0000      -0.414211       -11.2713
  33   2.0000      -0.402841       -10.9619
  34   2.0000      -0.393981       -10.7208
  35   2.0000      -0.378618       -10.3027
  36   2.0000      -0.366954        -9.9853
  37   2.0000      -0.340743        -9.2721
  38   2.0000      -0.308178        -8.3860
  39   2.0000      -0.304192        -8.2775
  40   2.0000      -0.264657        -7.2017
  41   0.0000       0.037563         1.0222
  42   0.0000       0.071847         1.9551
  43   0.0000       0.083691         2.2773
  44   0.0000       0.095971         2.6115
  45   0.0000       0.116756         3.1771

MULLIKEN ATOMIC CHARGES
-----------------------
   0 C :    0.508593
   1 C :    0.147217
   2 O :   -0.259349
   3 F :   -0.149521
   4 F :   -0.177849
   5 F :   -0.176469
   6 O :   -0.359200
   7 C :    0.185493
   8 C :    0.001878
   9 N :   -0.164320
  10 H :    0.019133
  11 H :    0.005582
  12 H :    0.015919
  13 H :   -0.014375
  14 H :    0.029112
  15 H :    0.111268
  16 H :    0.101217
  17 H :    0.175670
Sum of atomic charges:   -0.0000000

LOEWDIN ATOMIC CHARGES
----------------------
   0 C :    0.137836
   1 C :    0.054546
   2 O :   -0.098362
   3 F :   -0.039253
   4 F :   -0.064567
   5 F :   -0.063859
   6 O :   -0.152125
   7 C :    0.080872
   8 C :   -0.070542
   9 N :   -0.094244
  10 H :    0.023865
  11 H :    0.007743
  12 H :    0.029558
  13 H :    0.012446
  14 H :    0.030372
  15 H :    0.063616
  16 H :    0.059353
  17 H :    0.082746

  Mayer bond orders larger than 0.100000
B(  0-C ,  1-C ) :   0.8769 B(  0-C ,  3-F ) :   1.1769 B(  0-C ,  4-F ) :   1.1303
B(  0-C ,  5-F ) :   1.1297 B(  1-C ,  2-O ) :   1.0654 B(  1-C ,  6-O ) :   1.0839
B(  1-C ,  9-N ) :   1.1030 B(  2-O , 17-H ) :   0.9596 B(  6-O ,  7-C ) :   0.9298
B(  7-C ,  8-C ) :   1.1195 B(  7-C , 10-H ) :   0.9553 B(  7-C , 11-H ) :   0.9317
B(  8-C , 12-H ) :   0.9595 B(  8-C , 13-H ) :   0.9571 B(  8-C , 14-H ) :   0.9638
B(  9-N , 15-H ) :   0.9480 B(  9-N , 16-H ) :   0.9530

Dispersion correction           -0.024536933
FINAL SINGLE POINT ENERGY      -661.191808294683
Dispersion correction             ... done (  0.0 sec)

DIPOLE MOMENT
-------------

Method             : SCF
Type of density    : Electron Density
Multiplicity       :   1
Irrep              :   0
Energy             :  -661.1672713618798980 Eh
Basis              : AO
                                X                 Y                 Z
Electronic contribution:     19.425366008      -2.976628172      -0.077426727
Nuclear contribution   :    -20.533339943       3.742702797      -0.137415595
                        -----------------------------------------
Total Dipole Moment    :     -1.107973935       0.766074625      -0.214842322
                        -----------------------------------------
Magnitude (a.u.)       :      1.364050510
Magnitude (Debye)      :      3.467140859

Rotational constants in cm-1:             0.073704             0.030134             0.029100
Rotational constants in MHz :          2209.599708           903.385943           872.384081

                             ****ORCA TERMINATED NORMALLY****
TOTAL RUN TIME: 0 days 0 hours 0 minutes 27 seconds 316 msec
