                         Program Version 6.1.0  -  RELEASE   -
|  1> ! B3LYP def2-SVP d3 EnGrad
|  2> %pal nprocs 6 end
|  3> *xyz 0 1
|  4> N   1.23520576104867 -0.68139009384895 0.63904762768958
|  5> B   1.80732946230705 0.57081707880701 -0.10788949149011
|  6> B   -2.45361071243863 -0.4434206054254 -0.44648228773589
|  7> N   -1.77060124770989 0.53066702558426 0.2772207791572
|  8> H   0.23354062627142 -0.70183078553303 0.81123348073269
|  9> H   1.77861786034765 -1.06380181931779 1.40541980642153
| 10> H   1.7064609716181 -0.69783332374913 -0.68487062253279
| 11> H   2.89857760730882 0.94232546358036 0.25600914128983
| 12> H   2.08425167637052 -0.04058638549445 -1.3284808414101
| 13> H   0.99046713882202 1.40990135694997 -0.4267479170282
| 14> H   -2.0659612637955 -0.72688785977862 -1.55456750494392
| 15> H   -3.40806194832856 -0.98989474371763 0.05331801540413
| 16> H   -2.05671971147207 0.84050693441976 1.1999084884457
| 17> H   -0.97949622034958 1.05142775752363 -0.09311867399965
| 18> *
| 19>
| 20>                          ****END OF INPUT****

CARTESIAN COORDINATES (ANGSTROEM)
---------------------------------
  N      1.235206   -0.681390    0.639048
  B      1.807329    0.570817   -0.107889
  B     -2.453611   -0.443421   -0.446482
  N     -1.770601    0.530667    0.277221
  H      0.233541   -0.701831    0.811233
  H      1.778618   -1.063802    1.405420
  H      1.706461   -0.697833   -0.684871
  H      2.898578    0.942325    0.256009
  H      2.084252   -0.040586   -1.328481
  H      0.990467    1.409901   -0.426748
  H     -2.065961   -0.726888   -1.554568
  H     -3.408062   -0.989895    0.053318
  H     -2.056720    0.840507    1.199908
  H     -0.979496    1.051428   -0.093119

 Total Charge           Charge          ....    0
 Multiplicity           Mult            ....    1
 Number of Electrons    NEL             ....   34
 Basis Dimension        Dim             ....  106

ORBITAL ENERGIES
----------------

  NO   OCC          E(Eh)            E(eV)
   0   2.0000     -14.335146      -390.0792
   1   2.0000     -14.320901      -389.6915
   2   2.0000      -6.755502      -183.8266
   3   2.0000      -6.747289      -183.6031
   4   2.0000      -0.862144       -23.4601
   5   2.0000      -0.852980       -23.2108
   6   2.0000      -0.593322       -16.1451
   7   2.0000      -0.523922       -14.2566
   8   2.0000      -0.516325       -14.0499
   9   2.0000      -0.494714       -13.4619
  10   2.0000      -0.418405       -11.3854
  11   2.0000      -0.390235       -10.6188
  12   2.0000      -0.379911       -10.3379
  13   2.0000      -0.322601        -8.7784
  14   2.0000      -0.314991        -8.5713
  15   2.0000      -0.307265        -8.3611
  16   2.0000      -0.252614        -6.8740
  17   0.0000       0.005925         0.1612
  18   0.0000       0.026244         0.7141
  19   0.0000       0.062453         1.6994
  20   0.0000       0.082023         2.2320
  21   0.0000       0.105795         2.8788

MULLIKEN ATOMIC CHARGES
-----------------------
   0 N :   -0.197342
   1 B :   -0.117077
   2 B :   -0.055076
   3 N :   -0.077146
   4 H :    0.106766
   5 H :    0.125670
   6 H :    0.212744
   7 H :   -0.020950
   8 H :   -0.086967
   9 H :   -0.040303
  10 H :   -0.046808
  11 H :   -0.046431
  12 H :    0.120813
  13 H :    0.122106
Sum of atomic charges:    0.0000000

LOEWDIN ATOMIC CHARGES
----------------------
   0 N :   -0.047090
   1 B :   -0.236205
   2 B :   -0.121269
   3 N :    0.059084
   4 H :    0.061932
   5 H :    0.075327
   6 H :    0.180961
   7 H :   -0.034859
   8 H :    0.032820
   9 H :   -0.045763
  10 H :   -0.044085
  11 H :   -0.045452
  12 H :    0.082403
  13 H :    0.082196

  Mayer bond orders larger than 0.100000
B(  0-N ,  1-B ) :   0.8948 B(  0-N ,  4-H ) :   0.9444 B(  0-N ,  5-H ) :   0.9634
B(  0-N ,  6-H ) :   0.3653 B(  1-B ,  6-H ) :   0.2825 B(  1-B ,  7-H ) :   0.9789
B(  1-B ,  8-H ) :   0.4776 B(  1-B ,  9-H ) :   0.9485 B(  2-B ,  3-N ) :   1.5612
B(  2-B , 10-H ) :   0.9705 B(  2-B , 11-H ) :   0.9697 B(  3-N , 12-H ) :   0.9580
B(  3-N , 13-H ) :   0.9419 B(  6-H ,  8-H ) :   0.3427

Dispersion correction           -0.012615975
FINAL SINGLE POINT ENERGY      -164.972262363465
Dispersion correction             ... done (  0.0 sec)

DIPOLE MOMENT
-------------

Method             : SCF
Type of density    : Electron Density
Multiplicity       :   1
Irrep              :   0
Energy             :  -164.9596463887477569 Eh
Basis              : AO
                                X                 Y                 Z
Electronic contribution:     -3.283229372      -0.149065667       1.512231025
Nuclear contribution   :      3.348799223       0.018514720      -0.770138382
                        -----------------------------------------
Total Dipole Moment    :      0.065569852      -0.130550947       0.742092643
                        -----------------------------------------
Magnitude (a.u.)       :      0.756336199
Magnitude (Debye)      :      1.922453839

Rotational constants in cm-1:             0.414403             0.076372             0.073195
Rotational constants in MHz :         12423.495235          2289.574261          2194.319227

                             ****ORCA TERMINATED NORMALLY****
TOTAL RUN TIME: 0 days 0 hours 0 minutes 10 seconds 983 msec
