                         Program Version 6.1.0  -  RELEASE   -
|  1> ! B3LYP def2-SVP d3 EnGrad
|  2> %pal nprocs 6 end
|  3> *xyz 0 1
|  4> C   -1.79586197233946 0.15680855187691 0.39317233870972
|  5> C   2.03719662144719 0.33092095851683 -0.19043405574241
|  6> C   -2.82222716628838 -0.24274566375711 -0.36257102621379
|  7> C   -0.38318467483267 -0.33705622035829 0.26828566022724
|  8> C   0.59758184988549 0.77659418708949 -0.10833684085683
|  9> H   -3.82875091299506 0.16198589148348 -0.22399684274364
| 10> H   -2.69374782346547 -0.99671916515867 -1.14713422174243
| 11> H   -0.05106604400139 -0.78129516174251 1.22353365245322
| 12> H   0.55789888318832 1.61647547413175 0.61333078390931
| 13> H   -0.32380600329342 -1.14462759600815 -0.47906274016532
| 14> H   0.33311154327552 1.23471993469396 -1.08060673607827
| 15> H   -1.97228104373728 0.91672040122398 1.16741514821464
| 16> H   2.75896865001033 1.13620668439944 -0.49590856142104
| 17> O   2.42506209314632 -0.7858062763911 0.04469044144956
| 18> *
| 19>
| 20>                          ****END OF INPUT****

CARTESIAN COORDINATES (ANGSTROEM)
---------------------------------
  C     -1.795862    0.156809    0.393172
  C      2.037197    0.330921   -0.190434
  C     -2.822227   -0.242746   -0.362571
  C     -0.383185   -0.337056    0.268286
  C      0.597582    0.776594   -0.108337
  H     -3.828751    0.161986   -0.223997
  H     -2.693748   -0.996719   -1.147134
  H     -0.051066   -0.781295    1.223534
  H      0.557899    1.616475    0.613331
  H     -0.323806   -1.144628   -0.479063
  H      0.333112    1.234720   -1.080607
  H     -1.972281    0.916720    1.167415
  H      2.758969    1.136207   -0.495909
  O      2.425062   -0.785806    0.044690

 Total Charge           Charge          ....    0
 Multiplicity           Mult            ....    1
 Number of Electrons    NEL             ....   46
 Basis Dimension        Dim             ....  124

ORBITAL ENERGIES
----------------

  NO   OCC          E(Eh)            E(eV)
   0   2.0000     -19.136028      -520.7178
   1   2.0000     -10.277259      -279.6584
   2   2.0000     -10.203194      -277.6430
   3   2.0000     -10.192704      -277.3576
   4   2.0000     -10.192173      -277.3431
   5   2.0000     -10.182651      -277.0840
   6   2.0000      -1.039716       -28.2921
   7   2.0000      -0.804099       -21.8807
   8   2.0000      -0.744402       -20.2562
   9   2.0000      -0.660056       -17.9610
  10   2.0000      -0.560501       -15.2520
  11   2.0000      -0.547618       -14.9015
  12   2.0000      -0.488787       -13.3006
  13   2.0000      -0.475161       -12.9298
  14   2.0000      -0.446854       -12.1595
  15   2.0000      -0.441403       -12.0112
  16   2.0000      -0.409576       -11.1451
  17   2.0000      -0.385311       -10.4848
  18   2.0000      -0.375736       -10.2243
  19   2.0000      -0.350735        -9.5440
  20   2.0000      -0.344291        -9.3686
  21   2.0000      -0.270109        -7.3500
  22   2.0000      -0.252398        -6.8681
  23   0.0000      -0.024381        -0.6634
  24   0.0000       0.010370         0.2822
  25   0.0000       0.061950         1.6857
  26   0.0000       0.081866         2.2277
  27   0.0000       0.085759         2.3336

MULLIKEN ATOMIC CHARGES
-----------------------
   0 C :   -0.081345
   1 C :    0.119926
   2 C :   -0.029563
   3 C :    0.094265
   4 C :   -0.022308
   5 H :    0.020173
   6 H :    0.014482
   7 H :    0.022421
   8 H :    0.026140
   9 H :    0.007984
  10 H :    0.030254
  11 H :   -0.001771
  12 H :   -0.006202
  13 O :   -0.194455
Sum of atomic charges:   -0.0000000

LOEWDIN ATOMIC CHARGES
----------------------
   0 C :   -0.027079
   1 C :    0.114968
   2 C :   -0.062313
   3 C :   -0.027486
   4 C :   -0.072877
   5 H :    0.023664
   6 H :    0.021134
   7 H :    0.035780
   8 H :    0.041157
   9 H :    0.030678
  10 H :    0.042128
  11 H :    0.022084
  12 H :   -0.008789
  13 O :   -0.133047

  Mayer bond orders larger than 0.100000
B(  0-C ,  2-C ) :   2.0236 B(  0-C ,  3-C ) :   1.0451 B(  0-C , 11-H ) :   0.9561
B(  1-C ,  4-C ) :   0.9655 B(  1-C , 12-H ) :   0.9363 B(  1-C , 13-O ) :   2.1683
B(  2-C ,  5-H ) :   0.9495 B(  2-C ,  6-H ) :   0.9535 B(  3-C ,  4-C ) :   1.0560
B(  3-C ,  7-H ) :   0.9249 B(  3-C ,  9-H ) :   0.9416 B(  4-C ,  8-H ) :   0.9185
B(  4-C , 10-H ) :   0.9200

Dispersion correction           -0.017505741
FINAL SINGLE POINT ENERGY      -270.188619809043
Dispersion correction             ... done (  0.1 sec)

DIPOLE MOMENT
-------------

Method             : SCF
Type of density    : Electron Density
Multiplicity       :   1
Irrep              :   0
Energy             :  -270.1711140679076948 Eh
Basis              : AO
                                X                 Y                 Z
Electronic contribution:      4.931227496      -1.370187126       0.313715876
Nuclear contribution   :     -5.318228786       2.195089478      -0.421631181
                        -----------------------------------------
Total Dipole Moment    :     -0.387001289       0.824902352      -0.107915304
                        -----------------------------------------
Magnitude (a.u.)       :      0.917539972
Magnitude (Debye)      :      2.332201267

Rotational constants in cm-1:             0.409748             0.051151             0.048391
Rotational constants in MHz :         12283.922326          1533.471638          1450.715212

                             ****ORCA TERMINATED NORMALLY****
TOTAL RUN TIME: 0 days 0 hours 0 minutes 16 seconds 90 msec
