                         Program Version 6.1.0  -  RELEASE   -
|  1> ! B3LYP def2-SVP d3 EnGrad
|  2> %pal nprocs 6 end
|  3> *xyz 0 1
|  4> C   2.01941430090698 -1.13335696310904 0.11756543054908
|  5> C   1.89774481382909 0.18402380143563 0.35370959141274
|  6> C   0.86602013819262 1.0934620363664 -0.15547380083022
|  7> C   -0.42631797622971 0.82394331512803 -0.42903099747883
|  8> C   -1.15917546025768 -0.4742660499573 -0.24625290714199
|  9> C   -2.6083588658927 -0.27541284673637 0.20904478319297
| 10> H   2.66751180124613 0.66262548961817 0.9735271517331
| 11> H   1.33623768386619 -1.67374282904796 -0.54185386578364
| 12> H   2.83813298668443 -1.70858081746072 0.55890685227311
| 13> H   -1.15533655471371 -1.03445532105083 -1.20189531726989
| 14> H   -0.61655552543004 -1.11154430078302 0.47158837837891
| 15> H   -2.65005566861753 0.24319565520861 1.18082059405978
| 16> H   -3.12915625885158 -1.23972796072567 0.31812798178218
| 17> H   -1.0364546045698 1.65603124366038 -0.80398590929424
| 18> H   -3.17621610740282 0.33208903440178 -0.5156230970202
| 19> H   1.19587829724011 2.13047551305189 -0.29260886856284
| 20> *
| 21>
| 22>                          ****END OF INPUT****

CARTESIAN COORDINATES (ANGSTROEM)
---------------------------------
  C      2.019414   -1.133357    0.117565
  C      1.897745    0.184024    0.353710
  C      0.866020    1.093462   -0.155474
  C     -0.426318    0.823943   -0.429031
  C     -1.159175   -0.474266   -0.246253
  C     -2.608359   -0.275413    0.209045
  H      2.667512    0.662625    0.973527
  H      1.336238   -1.673743   -0.541854
  H      2.838133   -1.708581    0.558907
  H     -1.155337   -1.034455   -1.201895
  H     -0.616556   -1.111544    0.471588
  H     -2.650056    0.243196    1.180821
  H     -3.129156   -1.239728    0.318128
  H     -1.036455    1.656031   -0.803986
  H     -3.176216    0.332089   -0.515623
  H      1.195878    2.130476   -0.292609

 Total Charge           Charge          ....    0
 Multiplicity           Mult            ....    1
 Number of Electrons    NEL             ....   46
 Basis Dimension        Dim             ....  134

ORBITAL ENERGIES
----------------

  NO   OCC          E(Eh)            E(eV)
   0   2.0000     -10.189303      -277.2650
   1   2.0000     -10.185333      -277.1570
   2   2.0000     -10.184335      -277.1298
   3   2.0000     -10.182411      -277.0775
   4   2.0000     -10.181823      -277.0615
   5   2.0000     -10.177660      -276.9482
   6   2.0000      -0.801783       -21.8176
   7   2.0000      -0.757443       -20.6111
   8   2.0000      -0.704296       -19.1649
   9   2.0000      -0.627312       -17.0700
  10   2.0000      -0.577791       -15.7225
  11   2.0000      -0.515390       -14.0245
  12   2.0000      -0.475840       -12.9483
  13   2.0000      -0.446779       -12.1575
  14   2.0000      -0.437746       -11.9117
  15   2.0000      -0.413090       -11.2407
  16   2.0000      -0.387932       -10.5562
  17   2.0000      -0.368938       -10.0393
  18   2.0000      -0.357850        -9.7376
  19   2.0000      -0.340401        -9.2628
  20   2.0000      -0.326443        -8.8830
  21   2.0000      -0.297063        -8.0835
  22   2.0000      -0.227947        -6.2028
  23   0.0000      -0.025286        -0.6881
  24   0.0000       0.058514         1.5922
  25   0.0000       0.076391         2.0787
  26   0.0000       0.078936         2.1480
  27   0.0000       0.094270         2.5652

MULLIKEN ATOMIC CHARGES
-----------------------
   0 C :   -0.030716
   1 C :   -0.026553
   2 C :    0.003045
   3 C :   -0.074337
   4 C :    0.044250
   5 C :   -0.009727
   6 H :   -0.001292
   7 H :    0.021303
   8 H :    0.020152
   9 H :    0.021510
  10 H :    0.014553
  11 H :    0.015924
  12 H :    0.009200
  13 H :   -0.010184
  14 H :    0.011547
  15 H :   -0.008673
Sum of atomic charges:    0.0000000

LOEWDIN ATOMIC CHARGES
----------------------
   0 C :   -0.051159
   1 C :   -0.031563
   2 C :   -0.052695
   3 C :   -0.018251
   4 C :   -0.043134
   5 C :   -0.053429
   6 H :    0.027539
   7 H :    0.021339
   8 H :    0.023819
   9 H :    0.031412
  10 H :    0.028914
  11 H :    0.023164
  12 H :    0.023335
  13 H :    0.022769
  14 H :    0.020746
  15 H :    0.027196

  Mayer bond orders larger than 0.100000
B(  0-C ,  1-C ) :   1.9401 B(  0-C ,  7-H ) :   0.9537 B(  0-C ,  8-H ) :   0.9463
B(  1-C ,  2-C ) :   1.0846 B(  1-C ,  6-H ) :   0.9511 B(  2-C ,  3-C ) :   1.8865
B(  2-C , 15-H ) :   0.9436 B(  3-C ,  4-C ) :   1.0532 B(  3-C , 13-H ) :   0.9487
B(  4-C ,  5-C ) :   1.0898 B(  4-C ,  9-H ) :   0.9238 B(  4-C , 10-H ) :   0.9282
B(  5-C , 11-H ) :   0.9746 B(  5-C , 12-H ) :   0.9652 B(  5-C , 14-H ) :   0.9705

Dispersion correction           -0.021204981
FINAL SINGLE POINT ENERGY      -234.302986686365
Dispersion correction             ... done (  0.0 sec)

DIPOLE MOMENT
-------------

Method             : SCF
Type of density    : Electron Density
Multiplicity       :   1
Irrep              :   0
Energy             :  -234.2817817052139162 Eh
Basis              : AO
                                X                 Y                 Z
Electronic contribution:      3.769191701       1.694810796      -0.333167456
Nuclear contribution   :     -3.875125449      -1.734688347       0.327356475
                        -----------------------------------------
Total Dipole Moment    :     -0.105933748      -0.039877550      -0.005810981
                        -----------------------------------------
Magnitude (a.u.)       :      0.113339955
Magnitude (Debye)      :      0.288087271

Rotational constants in cm-1:             0.240230             0.064904             0.054254
Rotational constants in MHz :          7201.928007          1945.773516          1626.504217

                             ****ORCA TERMINATED NORMALLY****
TOTAL RUN TIME: 0 days 0 hours 0 minutes 18 seconds 144 msec
