                         Program Version 6.1.0  -  RELEASE   -
|  1> ! B3LYP def2-SVP d3 EnGrad
|  2> %pal nprocs 6 end
|  3> *xyz 0 1
|  4> C   1.24527177061673 1.00536305657939 -2.03904721073632
|  5> C   0.59162924834773 0.47889186629727 -0.79780842228829
|  6> C   0.70659753492719 0.94379625936774 0.46068729459688
|  7> C   0.12634894380879 0.07749846729482 1.54997185017444
|  8> O   -0.16294377518431 -1.16709924188615 0.89377768061515
|  9> Cl   -1.80781217920061 -1.18248729115109 -1.71000345564951
| 10> S   -1.9133476210246 -1.7010102757469 0.92811370979487
| 11> O   -2.68944870273662 -0.50947061623721 1.24931248887064
| 12> Cl   -1.54746566739457 -2.61062940064166 2.94926097350945
| 13> H   0.48895404014158 1.26251581893855 -2.79740898344146
| 14> H   1.89291993662446 0.23216248434936 -2.48505417691199
| 15> H   1.85772336376825 1.89503416700952 -1.82917330006574
| 16> H   -0.37351934503492 -0.20897763122391 -1.15632912150317
| 17> H   1.27917378793791 1.83711602418739 0.73185831423567
| 18> H   0.83043387485275 -0.1031042958778 2.37748550020373
| 19> H   -0.80587869045381 0.49905629098162 1.96683897500534
| 20> H   0.28136348000406 -0.74865568224096 -0.2924821164097
| 21> *
| 22>
| 23>                          ****END OF INPUT****

CARTESIAN COORDINATES (ANGSTROEM)
---------------------------------
  C      1.245272    1.005363   -2.039047
  C      0.591629    0.478892   -0.797808
  C      0.706598    0.943796    0.460687
  C      0.126349    0.077498    1.549972
  O     -0.162944   -1.167099    0.893778
  Cl    -1.807812   -1.182487   -1.710003
  S     -1.913348   -1.701010    0.928114
  O     -2.689449   -0.509471    1.249312
  Cl    -1.547466   -2.610629    2.949261
  H      0.488954    1.262516   -2.797409
  H      1.892920    0.232162   -2.485054
  H      1.857723    1.895034   -1.829173
  H     -0.373519   -0.208978   -1.156329
  H      1.279174    1.837116    0.731858
  H      0.830434   -0.103104    2.377486
  H     -0.805879    0.499056    1.966839
  H      0.281363   -0.748656   -0.292482

 Total Charge           Charge          ....    0
 Multiplicity           Mult            ....    1
 Number of Electrons    NEL             ....   98
 Basis Dimension        Dim             ....  178

ORBITAL ENERGIES
----------------

  NO   OCC          E(Eh)            E(eV)
   0   2.0000    -101.476220     -2761.3083
   1   2.0000    -101.428554     -2760.0113
   2   2.0000     -89.051548     -2423.2158
   3   2.0000     -19.222321      -523.0660
   4   2.0000     -19.181341      -521.9508
   5   2.0000     -10.287119      -279.9267
   6   2.0000     -10.249316      -278.8981
   7   2.0000     -10.234124      -278.4847
   8   2.0000     -10.216740      -278.0116
   9   2.0000      -9.430240      -256.6099
  10   2.0000      -9.381031      -255.2708
  11   2.0000      -8.127162      -221.1513
  12   2.0000      -7.198214      -195.8734
  13   2.0000      -7.190075      -195.6519
  14   2.0000      -7.189852      -195.6458
  15   2.0000      -7.145197      -194.4307
  16   2.0000      -7.144317      -194.4068
  17   2.0000      -7.141624      -194.3335
  18   2.0000      -6.096121      -165.8839
  19   2.0000      -6.094279      -165.8338
  20   2.0000      -6.087321      -165.6444
  21   2.0000      -1.117329       -30.4041
  22   2.0000      -1.063708       -28.9450
  23   2.0000      -0.849522       -23.1167
  24   2.0000      -0.803754       -21.8713
  25   2.0000      -0.768413       -20.9096
  26   2.0000      -0.736868       -20.0512
  27   2.0000      -0.697782       -18.9876
  28   2.0000      -0.680710       -18.5231
  29   2.0000      -0.595371       -16.2009
  30   2.0000      -0.557263       -15.1639
  31   2.0000      -0.541852       -14.7445
  32   2.0000      -0.518010       -14.0958
  33   2.0000      -0.478111       -13.0101
  34   2.0000      -0.472759       -12.8644
  35   2.0000      -0.451240       -12.2789
  36   2.0000      -0.440849       -11.9961
  37   2.0000      -0.438079       -11.9207
  38   2.0000      -0.411119       -11.1871
  39   2.0000      -0.408781       -11.1235
  40   2.0000      -0.379651       -10.3308
  41   2.0000      -0.360556        -9.8112
  42   2.0000      -0.317071        -8.6279
  43   2.0000      -0.310451        -8.4478
  44   2.0000      -0.300600        -8.1797
  45   2.0000      -0.294160        -8.0045
  46   2.0000      -0.266411        -7.2494
  47   2.0000      -0.260263        -7.0821
  48   2.0000      -0.257983        -7.0201
  49   0.0000      -0.081113        -2.2072
  50   0.0000      -0.078740        -2.1426
  51   0.0000      -0.061504        -1.6736
  52   0.0000       0.038398         1.0449
  53   0.0000       0.049916         1.3583

MULLIKEN ATOMIC CHARGES
-----------------------
   0 C :    0.097043
   1 C :   -0.188510
   2 C :   -0.092702
   3 C :    0.255968
   4 O :   -0.472757
   5 Cl:   -0.419764
   6 S :    0.838914
   7 O :   -0.381923
   8 Cl:   -0.268862
   9 H :    0.048500
  10 H :    0.042163
  11 H :    0.023358
  12 H :    0.117473
  13 H :    0.031751
  14 H :    0.057798
  15 H :    0.081444
  16 H :    0.230105
Sum of atomic charges:    0.0000000

LOEWDIN ATOMIC CHARGES
----------------------
   0 C :   -0.042297
   1 C :   -0.066725
   2 C :    0.010019
   3 C :    0.076788
   4 O :   -0.240461
   5 Cl:   -0.380644
   6 S :    0.890457
   7 O :   -0.417295
   8 Cl:   -0.264198
   9 H :    0.046325
  10 H :    0.046105
  11 H :    0.033837
  12 H :    0.059546
  13 H :    0.038745
  14 H :    0.037261
  15 H :    0.036293
  16 H :    0.136244

  Mayer bond orders larger than 0.100000
B(  0-C ,  1-C ) :   1.0620 B(  0-C ,  9-H ) :   0.9435 B(  0-C , 10-H ) :   0.9518
B(  0-C , 11-H ) :   0.9668 B(  1-C ,  2-C ) :   1.7896 B(  1-C , 12-H ) :   0.5327
B(  1-C , 16-H ) :   0.4020 B(  2-C ,  3-C ) :   1.0309 B(  2-C , 13-H ) :   0.9690
B(  3-C ,  4-O ) :   0.8816 B(  3-C , 14-H ) :   0.9426 B(  3-C , 15-H ) :   0.9063
B(  4-O ,  6-S ) :   0.6233 B(  4-O , 16-H ) :   0.3824 B(  5-Cl,  6-S ) :   0.3194
B(  5-Cl, 12-H ) :   0.4034 B(  6-S ,  7-O ) :   1.7480 B(  6-S ,  8-Cl) :   0.7524
B(  7-O ,  8-Cl) :   0.1342 B( 12-H , 16-H ) :   0.1076

Dispersion correction           -0.034479211
FINAL SINGLE POINT ENERGY     -1625.191012392174
Dispersion correction             ... done (  0.0 sec)

DIPOLE MOMENT
-------------

Method             : SCF
Type of density    : Electron Density
Multiplicity       :   1
Irrep              :   0
Energy             : -1625.1565331810518273 Eh
Basis              : AO
                                X                 Y                 Z
Electronic contribution:    -12.523434187     -12.832218838       7.485356884
Nuclear contribution   :     14.384277881      14.060764434      -7.313109960
                        -----------------------------------------
Total Dipole Moment    :      1.860843694       1.228545596       0.172246924
                        -----------------------------------------
Magnitude (a.u.)       :      2.236455351
Magnitude (Debye)      :      5.684617738

Rotational constants in cm-1:             0.047227             0.020711             0.016056
Rotational constants in MHz :          1415.825178           620.914753           481.333995

                             ****ORCA TERMINATED NORMALLY****
TOTAL RUN TIME: 0 days 0 hours 0 minutes 30 seconds 640 msec
