                         Program Version 6.1.0  -  RELEASE   -
|  1> ! B3LYP def2-SVP d3 EnGrad
|  2> %pal nprocs 6 end
|  3> *xyz 0 1
|  4> C   -1.19847786995095 -1.10801398132029 0.48217580846741
|  5> C   -1.57588322213237 -0.50561549701744 -0.7592177200921
|  6> C   -1.86853592768264 0.80148221230167 -0.42994437278367
|  7> C   -1.20249878327515 1.01099281866716 0.81788092706846
|  8> C   2.55517461386794 -0.30882309775895 0.27918094661877
|  9> C   2.1161472738967 0.22035921132612 -0.86361739661702
| 10> H   -1.54269860544298 -0.98289526012258 -1.74541906376585
| 11> H   -1.93076138826385 -1.14396333167468 1.29082585863609
| 12> H   -0.41712790034695 -1.88163128983435 0.55512635601434
| 13> H   3.60063961036292 -0.22093117209401 0.59292262447451
| 14> H   1.88469224242546 -0.85235100185327 0.95239274757966
| 15> H   1.06944719567368 0.13384108809489 -1.17271895364466
| 16> H   2.78520808913777 0.76732733632007 -1.53617162541338
| 17> H   -1.62380420402639 1.63921345676949 1.61959251210559
| 18> H   -0.11528479921278 0.92107027577648 0.85075882573281
| 19> H   -2.5362363250304 1.50993823241969 -0.93376747438098
| 20> *
| 21>
| 22>                          ****END OF INPUT****

CARTESIAN COORDINATES (ANGSTROEM)
---------------------------------
  C     -1.198478   -1.108014    0.482176
  C     -1.575883   -0.505615   -0.759218
  C     -1.868536    0.801482   -0.429944
  C     -1.202499    1.010993    0.817881
  C      2.555175   -0.308823    0.279181
  C      2.116147    0.220359   -0.863617
  H     -1.542699   -0.982895   -1.745419
  H     -1.930761   -1.143963    1.290826
  H     -0.417128   -1.881631    0.555126
  H      3.600640   -0.220931    0.592923
  H      1.884692   -0.852351    0.952393
  H      1.069447    0.133841   -1.172719
  H      2.785208    0.767327   -1.536172
  H     -1.623804    1.639213    1.619593
  H     -0.115285    0.921070    0.850759
  H     -2.536236    1.509938   -0.933767

 Total Charge           Charge          ....    0
 Multiplicity           Mult            ....    1
 Number of Electrons    NEL             ....   46
 Basis Dimension        Dim             ....  134

ORBITAL ENERGIES
----------------

  NO   OCC          E(Eh)            E(eV)
   0   2.0000     -10.201406      -277.5944
   1   2.0000     -10.200255      -277.5630
   2   2.0000     -10.185408      -277.1590
   3   2.0000     -10.184253      -277.1276
   4   2.0000     -10.184105      -277.1236
   5   2.0000     -10.183386      -277.1040
   6   2.0000      -0.820833       -22.3360
   7   2.0000      -0.746753       -20.3202
   8   2.0000      -0.673382       -18.3237
   9   2.0000      -0.617275       -16.7969
  10   2.0000      -0.567034       -15.4298
  11   2.0000      -0.520428       -14.1616
  12   2.0000      -0.486392       -13.2354
  13   2.0000      -0.464727       -12.6459
  14   2.0000      -0.431205       -11.7337
  15   2.0000      -0.416302       -11.3281
  16   2.0000      -0.414123       -11.2689
  17   2.0000      -0.371248       -10.1022
  18   2.0000      -0.367711       -10.0059
  19   2.0000      -0.349872        -9.5205
  20   2.0000      -0.271545        -7.3891
  21   2.0000      -0.243729        -6.6322
  22   2.0000      -0.241475        -6.5709
  23   0.0000      -0.022608        -0.6152
  24   0.0000       0.009139         0.2487
  25   0.0000       0.015041         0.4093
  26   0.0000       0.075530         2.0553
  27   0.0000       0.094651         2.5756

MULLIKEN ATOMIC CHARGES
-----------------------
   0 C :   -0.058573
   1 C :   -0.033729
   2 C :   -0.036813
   3 C :   -0.059191
   4 C :   -0.062302
   5 C :   -0.063062
   6 H :    0.000559
   7 H :    0.067940
   8 H :    0.029060
   9 H :    0.026326
  10 H :    0.030470
  11 H :    0.042884
  12 H :    0.026300
  13 H :    0.023169
  14 H :    0.068413
  15 H :   -0.001449
Sum of atomic charges:   -0.0000000

LOEWDIN ATOMIC CHARGES
----------------------
   0 C :   -0.007562
   1 C :   -0.056108
   2 C :   -0.052647
   3 C :   -0.001816
   4 C :   -0.051176
   5 C :   -0.044695
   6 H :    0.015793
   7 H :    0.033095
   8 H :    0.010733
   9 H :    0.023275
  10 H :    0.020697
  11 H :    0.026773
  12 H :    0.023981
  13 H :    0.011927
  14 H :    0.031546
  15 H :    0.016184

  Mayer bond orders larger than 0.100000
B(  0-C ,  1-C ) :   1.3645 B(  0-C ,  3-C ) :   0.6757 B(  0-C ,  7-H ) :   0.9434
B(  0-C ,  8-H ) :   0.9475 B(  1-C ,  2-C ) :   1.5310 B(  1-C ,  6-H ) :   0.9865
B(  2-C ,  3-C ) :   1.3554 B(  2-C , 15-H ) :   0.9905 B(  3-C , 13-H ) :   0.9538
B(  3-C , 14-H ) :   0.9340 B(  4-C ,  5-C ) :   2.0666 B(  4-C ,  9-H ) :   0.9601
B(  4-C , 10-H ) :   0.9564 B(  5-C , 11-H ) :   0.9526 B(  5-C , 12-H ) :   0.9604

Dispersion correction           -0.020090592
FINAL SINGLE POINT ENERGY      -234.189298965442
Dispersion correction             ... done (  0.0 sec)

DIPOLE MOMENT
-------------

Method             : SCF
Type of density    : Electron Density
Multiplicity       :   1
Irrep              :   0
Energy             :  -234.1692083735574954 Eh
Basis              : AO
                                X                 Y                 Z
Electronic contribution:     -2.576769789       0.247601869      -0.975990173
Nuclear contribution   :      2.576871010      -0.242266958       1.039335036
                        -----------------------------------------
Total Dipole Moment    :      0.000101221       0.005334911       0.063344863
                        -----------------------------------------
Magnitude (a.u.)       :      0.063569200
Magnitude (Debye)      :      0.161580067

Rotational constants in cm-1:             0.176956             0.052322             0.050943
Rotational constants in MHz :          5304.993175          1568.578338          1527.229914

                             ****ORCA TERMINATED NORMALLY****
TOTAL RUN TIME: 0 days 0 hours 0 minutes 17 seconds 259 msec
