                         Program Version 6.1.0  -  RELEASE   -
|  1> ! B3LYP def2-SVP d3 EnGrad
|  2> %pal nprocs 6 end
|  3> *xyz 0 1
|  4> C   1.3694593426771 -0.36925655140427 0.06583261455612
|  5> O   1.02237333745506 0.87485796731781 0.21677466024945
|  6> C   -1.36945967985695 0.36925651966923 -0.06583105281537
|  7> O   -1.0223728243205 -0.87485612542559 -0.21678661008224
|  8> H   1.6950981676595 -0.92516773528634 0.96662390721566
|  9> H   1.86118194631795 -0.65296315575598 -0.88472527050785
| 10> H   -0.15166484977901 0.96591336917102 0.13069011871858
| 11> H   -1.69509270241177 0.92517900768009 -0.9666171194337
| 12> H   0.15166576313003 -0.96591523881548 -0.13068792716643
| 13> H   -1.86118850087141 0.65295194284951 0.88472667926577
| 14> *
| 15>
| 16>                          ****END OF INPUT****

CARTESIAN COORDINATES (ANGSTROEM)
---------------------------------
  C      1.369459   -0.369257    0.065833
  O      1.022373    0.874858    0.216775
  C     -1.369460    0.369257   -0.065831
  O     -1.022373   -0.874856   -0.216787
  H      1.695098   -0.925168    0.966624
  H      1.861182   -0.652963   -0.884725
  H     -0.151665    0.965913    0.130690
  H     -1.695093    0.925179   -0.966617
  H      0.151666   -0.965915   -0.130688
  H     -1.861189    0.652952    0.884727

 Total Charge           Charge          ....    0
 Multiplicity           Mult            ....    1
 Number of Electrons    NEL             ....   34
 Basis Dimension        Dim             ....   86

ORBITAL ENERGIES
----------------

  NO   OCC          E(Eh)            E(eV)
   0   2.0000     -19.163138      -521.4555
   1   2.0000     -19.163104      -521.4546
   2   2.0000     -10.247595      -278.8512
   3   2.0000     -10.247563      -278.8504
   4   2.0000      -1.053636       -28.6709
   5   2.0000      -1.019820       -27.7507
   6   2.0000      -0.683446       -18.5975
   7   2.0000      -0.619173       -16.8486
   8   2.0000      -0.563073       -15.3220
   9   2.0000      -0.482604       -13.1323
  10   2.0000      -0.467445       -12.7198
  11   2.0000      -0.465199       -12.6587
  12   2.0000      -0.452490       -12.3129
  13   2.0000      -0.370453       -10.0805
  14   2.0000      -0.291258        -7.9255
  15   2.0000      -0.281905        -7.6710
  16   2.0000      -0.281047        -7.6477
  17   0.0000      -0.082907        -2.2560
  18   0.0000       0.074054         2.0151
  19   0.0000       0.086389         2.3508
  20   0.0000       0.133896         3.6435
  21   0.0000       0.140112         3.8126

MULLIKEN ATOMIC CHARGES
-----------------------
   0 C :    0.049212
   1 O :   -0.260327
   2 C :    0.049213
   3 O :   -0.260328
   4 H :    0.032496
   5 H :    0.032602
   6 H :    0.146017
   7 H :    0.032495
   8 H :    0.146017
   9 H :    0.032602
Sum of atomic charges:   -0.0000000

LOEWDIN ATOMIC CHARGES
----------------------
   0 C :    0.024209
   1 O :   -0.097191
   2 C :    0.024210
   3 O :   -0.097191
   4 H :    0.010434
   5 H :    0.010538
   6 H :    0.052009
   7 H :    0.010434
   8 H :    0.052010
   9 H :    0.010538

  Mayer bond orders larger than 0.100000
B(  0-C ,  1-O ) :   1.3825 B(  0-C ,  2-C ) :   0.1759 B(  0-C ,  4-H ) :   0.9272
B(  0-C ,  5-H ) :   0.9272 B(  0-C ,  8-H ) :   0.4475 B(  1-O ,  3-O ) :   0.1154
B(  1-O ,  6-H ) :   0.5868 B(  2-C ,  3-O ) :   1.3825 B(  2-C ,  6-H ) :   0.4475
B(  2-C ,  7-H ) :   0.9272 B(  2-C ,  9-H ) :   0.9272 B(  3-O ,  8-H ) :   0.5868

Dispersion correction           -0.008766690
FINAL SINGLE POINT ENERGY      -229.864551212587
Dispersion correction             ... done (  0.0 sec)

DIPOLE MOMENT
-------------

Method             : SCF
Type of density    : Electron Density
Multiplicity       :   1
Irrep              :   0
Energy             :  -229.8557845229819918 Eh
Basis              : AO
                                X                 Y                 Z
Electronic contribution:     -0.000001017       0.000003538      -0.000016321
Nuclear contribution   :     -0.000000521      -0.000004156       0.000024334
                        -----------------------------------------
Total Dipole Moment    :     -0.000001538      -0.000000618       0.000008014
                        -----------------------------------------
Magnitude (a.u.)       :      0.000008183
Magnitude (Debye)      :      0.000020800

Rotational constants in cm-1:             0.490140             0.172334             0.134755
Rotational constants in MHz :         14694.039675          5166.452326          4039.864214

                             ****ORCA TERMINATED NORMALLY****
TOTAL RUN TIME: 0 days 0 hours 0 minutes 8 seconds 997 msec
