                         Program Version 6.1.0  -  RELEASE   -
|  1> ! B3LYP def2-SVP d3 EnGrad
|  2> %pal nprocs 6 end
|  3> *xyz 0 1
|  4> N   1.49626432106562 -0.61953441384001 -0.06748557966534
|  5> B   2.06562325159618 0.64654824816227 -0.10135725855565
|  6> B   -2.29955081726072 -0.29475938083921 1.13666020550193
|  7> N   -1.55356336937964 0.38025039028148 0.17272345866125
|  8> H   0.5135540967675 -0.77217292449252 0.14309969146687
|  9> H   2.02171508639773 -1.4715966899724 -0.22945591548689
| 10> H   0.01550218024819 -0.67219131178575 -2.45019775830007
| 11> H   3.24105709359577 0.77352598212531 -0.34536568037218
| 12> H   -0.3949731890036 -0.84992780534613 -3.06692727415236
| 13> H   1.36297121320344 1.61022696154329 0.1118731994731
| 14> H   -3.0929446936626 -1.13432028230483 0.78342327346155
| 15> H   -2.12288301560387 -0.03380229828381 2.30210955153303
| 16> H   -0.8954755831181 1.1223163745398 0.39231676525796
| 17> H   -1.67284657484591 0.23927415021255 -0.82517567882323
| 18> *
| 19>
| 20>                          ****END OF INPUT****

CARTESIAN COORDINATES (ANGSTROEM)
---------------------------------
  N      1.496264   -0.619534   -0.067486
  B      2.065623    0.646548   -0.101357
  B     -2.299551   -0.294759    1.136660
  N     -1.553563    0.380250    0.172723
  H      0.513554   -0.772173    0.143100
  H      2.021715   -1.471597   -0.229456
  H      0.015502   -0.672191   -2.450198
  H      3.241057    0.773526   -0.345366
  H     -0.394973   -0.849928   -3.066927
  H      1.362971    1.610227    0.111873
  H     -3.092945   -1.134320    0.783423
  H     -2.122883   -0.033802    2.302110
  H     -0.895476    1.122316    0.392317
  H     -1.672847    0.239274   -0.825176

 Total Charge           Charge          ....    0
 Multiplicity           Mult            ....    1
 Number of Electrons    NEL             ....   34
 Basis Dimension        Dim             ....  106

ORBITAL ENERGIES
----------------

  NO   OCC          E(Eh)            E(eV)
   0   2.0000     -14.338407      -390.1679
   1   2.0000     -14.332857      -390.0169
   2   2.0000      -6.749802      -183.6714
   3   2.0000      -6.748045      -183.6237
   4   2.0000      -0.865440       -23.5498
   5   2.0000      -0.856151       -23.2971
   6   2.0000      -0.528556       -14.3828
   7   2.0000      -0.522724       -14.2241
   8   2.0000      -0.516925       -14.0662
   9   2.0000      -0.509736       -13.8706
  10   2.0000      -0.433261       -11.7896
  11   2.0000      -0.394213       -10.7271
  12   2.0000      -0.390898       -10.6369
  13   2.0000      -0.322543        -8.7768
  14   2.0000      -0.317739        -8.6461
  15   2.0000      -0.309756        -8.4289
  16   2.0000      -0.304530        -8.2867
  17   0.0000       0.003001         0.0817
  18   0.0000       0.007494         0.2039
  19   0.0000       0.044009         1.1975
  20   0.0000       0.067357         1.8329
  21   0.0000       0.084722         2.3054

MULLIKEN ATOMIC CHARGES
-----------------------
   0 N :   -0.066424
   1 B :   -0.066821
   2 B :   -0.054817
   3 N :   -0.082769
   4 H :    0.105893
   5 H :    0.121681
   6 H :    0.000315
   7 H :   -0.042895
   8 H :   -0.015499
   9 H :   -0.065532
  10 H :   -0.045949
  11 H :   -0.043587
  12 H :    0.133859
  13 H :    0.122545
Sum of atomic charges:   -0.0000000

LOEWDIN ATOMIC CHARGES
----------------------
   0 N :    0.060363
   1 B :   -0.131376
   2 B :   -0.118016
   3 N :    0.061599
   4 H :    0.069089
   5 H :    0.083837
   6 H :   -0.001031
   7 H :   -0.044051
   8 H :   -0.006640
   9 H :   -0.053784
  10 H :   -0.045003
  11 H :   -0.043470
  12 H :    0.086444
  13 H :    0.082039

  Mayer bond orders larger than 0.100000
B(  0-N ,  1-B ) :   1.6027 B(  0-N ,  4-H ) :   0.9326 B(  0-N ,  5-H ) :   0.9579
B(  1-B ,  7-H ) :   0.9680 B(  1-B ,  9-H ) :   0.9536 B(  2-B ,  3-N ) :   1.5572
B(  2-B , 10-H ) :   0.9703 B(  2-B , 11-H ) :   0.9712 B(  3-N , 12-H ) :   0.9448
B(  3-N , 13-H ) :   0.9547 B(  6-H ,  8-H ) :   0.9782

Dispersion correction           -0.011548334
FINAL SINGLE POINT ENERGY      -165.034079671211
Dispersion correction             ... done (  0.0 sec)

DIPOLE MOMENT
-------------

Method             : SCF
Type of density    : Electron Density
Multiplicity       :   1
Irrep              :   0
Energy             :  -165.0225313369842013 Eh
Basis              : AO
                                X                 Y                 Z
Electronic contribution:      0.250578369       0.954426114       4.521900450
Nuclear contribution   :     -0.208541245      -1.283860072      -5.017481894
                        -----------------------------------------
Total Dipole Moment    :      0.042037124      -0.329433958      -0.495581445
                        -----------------------------------------
Magnitude (a.u.)       :      0.596569208
Magnitude (Debye)      :      1.516358421

Rotational constants in cm-1:             0.347962             0.071906             0.070373
Rotational constants in MHz :         10431.646585          2155.687091          2109.744249

                             ****ORCA TERMINATED NORMALLY****
TOTAL RUN TIME: 0 days 0 hours 0 minutes 11 seconds 108 msec
