                         Program Version 6.1.0  -  RELEASE   -
|  1> ! B3LYP def2-SVP d3 EnGrad
|  2> %pal nprocs 6 end
|  3> *xyz 0 1
|  4> C   1.87593075617552 0.56502507062822 -0.16834058599236
|  5> O   2.89306509204054 0.76640528388123 0.27731776595197
|  6> C   -1.75854104996041 0.1757192072553 0.11675696993841
|  7> O   -0.98545616231706 -0.60751769657923 -0.76139186750969
|  8> H   0.58271597544618 -2.51965038238026 1.11592939767504
|  9> H   -0.11736834137165 -0.18863361759004 -0.84694957830951
| 10> H   -1.91648039486455 1.20852542716105 -0.25356569997899
| 11> H   -2.74816344097098 -0.29807588728415 0.20999485772458
| 12> H   0.15277708963748 -2.14288926598776 0.60854317845377
| 13> H   -1.32437952381509 0.24157786089566 1.13509656204677
| 14> *
| 15>
| 16>                          ****END OF INPUT****

CARTESIAN COORDINATES (ANGSTROEM)
---------------------------------
  C      1.875931    0.565025   -0.168341
  O      2.893065    0.766405    0.277318
  C     -1.758541    0.175719    0.116757
  O     -0.985456   -0.607518   -0.761392
  H      0.582716   -2.519650    1.115929
  H     -0.117368   -0.188634   -0.846950
  H     -1.916480    1.208525   -0.253566
  H     -2.748163   -0.298076    0.209995
  H      0.152777   -2.142889    0.608543
  H     -1.324380    0.241578    1.135097

 Total Charge           Charge          ....    0
 Multiplicity           Mult            ....    1
 Number of Electrons    NEL             ....   34
 Basis Dimension        Dim             ....   86

ORBITAL ENERGIES
----------------

  NO   OCC          E(Eh)            E(eV)
   0   2.0000     -19.262831      -524.1683
   1   2.0000     -19.119605      -520.2709
   2   2.0000     -10.322285      -280.8837
   3   2.0000     -10.223515      -278.1960
   4   2.0000      -1.171629       -31.8816
   5   2.0000      -0.996063       -27.1042
   6   2.0000      -0.664601       -18.0847
   7   2.0000      -0.585929       -15.9439
   8   2.0000      -0.502130       -13.6637
   9   2.0000      -0.494949       -13.4682
  10   2.0000      -0.494638       -13.4598
  11   2.0000      -0.435326       -11.8458
  12   2.0000      -0.418328       -11.3833
  13   2.0000      -0.402889       -10.9632
  14   2.0000      -0.397661       -10.8209
  15   2.0000      -0.321868        -8.7585
  16   2.0000      -0.263944        -7.1823
  17   0.0000      -0.047530        -1.2934
  18   0.0000      -0.045883        -1.2485
  19   0.0000       0.075564         2.0562
  20   0.0000       0.100572         2.7367
  21   0.0000       0.125699         3.4205

MULLIKEN ATOMIC CHARGES
-----------------------
   0 C :    0.010325
   1 O :    0.007898
   2 C :    0.156552
   3 O :   -0.322405
   4 H :   -0.060811
   5 H :    0.169753
   6 H :    0.000455
   7 H :    0.020068
   8 H :    0.022860
   9 H :   -0.004697
Sum of atomic charges:   -0.0000000

LOEWDIN ATOMIC CHARGES
----------------------
   0 C :   -0.027030
   1 O :    0.074601
   2 C :    0.060990
   3 O :   -0.143120
   4 H :   -0.031056
   5 H :    0.042232
   6 H :    0.001519
   7 H :    0.019419
   8 H :    0.003655
   9 H :   -0.001209

  Mayer bond orders larger than 0.100000
B(  0-C ,  1-O ) :   2.5799 B(  2-C ,  3-O ) :   1.0316 B(  2-C ,  6-H ) :   0.9726
B(  2-C ,  7-H ) :   0.9823 B(  2-C ,  9-H ) :   0.9636 B(  3-O ,  5-H ) :   0.9703
B(  4-H ,  8-H ) :   0.9664

Dispersion correction           -0.007039743
FINAL SINGLE POINT ENERGY      -229.919941255714
Dispersion correction             ... done (  0.0 sec)

DIPOLE MOMENT
-------------

Method             : SCF
Type of density    : Electron Density
Multiplicity       :   1
Irrep              :   0
Energy             :  -229.9129015129202003 Eh
Basis              : AO
                                X                 Y                 Z
Electronic contribution:      7.815186519       4.860064124      -2.191631636
Nuclear contribution   :     -7.428052458      -4.171044465       2.421761816
                        -----------------------------------------
Total Dipole Moment    :      0.387134060       0.689019660       0.230130180
                        -----------------------------------------
Magnitude (a.u.)       :      0.823152946
Magnitude (Debye)      :      2.092288511

Rotational constants in cm-1:             0.514578             0.066042             0.063694
Rotational constants in MHz :         15426.651456          1979.887011          1909.510173

                             ****ORCA TERMINATED NORMALLY****
TOTAL RUN TIME: 0 days 0 hours 0 minutes 8 seconds 384 msec
