                         Program Version 6.1.0  -  RELEASE   -
|  1> ! B3LYP def2-SVP d3 EnGrad
|  2> %pal nprocs 6 end
|  3> *xyz 0 1
|  4> Si   0.39129185991423 -0.03830142751412 -0.52058420657815
|  5> H   0.59204875515446 -1.3464516639207 0.17575269647482
|  6> H   0.99626059367091 1.05315426791575 0.30359903423577
|  7> H   -1.1231761139117 0.21730406125472 -0.53274525145928
|  8> H   -0.85642509482789 0.11429476226435 0.57397772732685
|  9> *
| 10>
| 11>                          ****END OF INPUT****

CARTESIAN COORDINATES (ANGSTROEM)
---------------------------------
  Si     0.391292   -0.038301   -0.520584
  H      0.592049   -1.346452    0.175753
  H      0.996261    1.053154    0.303599
  H     -1.123176    0.217304   -0.532745
  H     -0.856425    0.114295    0.573978

 Total Charge           Charge          ....    0
 Multiplicity           Mult            ....    1
 Number of Electrons    NEL             ....   18
 Basis Dimension        Dim             ....   38

ORBITAL ENERGIES
----------------

  NO   OCC          E(Eh)            E(eV)
   0   2.0000     -66.103547     -1798.7690
   1   2.0000      -5.275805      -143.5620
   2   2.0000      -3.640240       -99.0560
   3   2.0000      -3.635281       -98.9210
   4   2.0000      -3.635205       -98.9190
   5   2.0000      -0.579630       -15.7725
   6   2.0000      -0.401749       -10.9321
   7   2.0000      -0.350200        -9.5294
   8   2.0000      -0.243772        -6.6334
   9   0.0000      -0.037169        -1.0114
  10   0.0000       0.034397         0.9360
  11   0.0000       0.055005         1.4967
  12   0.0000       0.083736         2.2786
  13   0.0000       0.228071         6.2061

MULLIKEN ATOMIC CHARGES
-----------------------
   0 Si:    0.098912
   1 H :   -0.048365
   2 H :   -0.048395
   3 H :    0.027486
   4 H :   -0.029638
Sum of atomic charges:   -0.0000000

LOEWDIN ATOMIC CHARGES
----------------------
   0 Si:    0.057095
   1 H :   -0.068002
   2 H :   -0.067955
   3 H :    0.039944
   4 H :    0.038918

  Mayer bond orders larger than 0.100000
B(  0-Si,  1-H ) :   0.9240 B(  0-Si,  2-H ) :   0.9239 B(  0-Si,  3-H ) :   0.7103
B(  0-Si,  4-H ) :   0.6819 B(  3-H ,  4-H ) :   0.2289

Dispersion correction           -0.003277981
FINAL SINGLE POINT ENERGY      -291.654091537635
Dispersion correction             ... done (  0.1 sec)

DIPOLE MOMENT
-------------

Method             : SCF
Type of density    : Electron Density
Multiplicity       :   1
Irrep              :   0
Energy             :  -291.6508135564523627 Eh
Basis              : AO
                                X                 Y                 Z
Electronic contribution:      1.477360872      -0.138892320      -2.073920754
Nuclear contribution   :     -1.608577286       0.157454863       2.140090342
                        -----------------------------------------
Total Dipole Moment    :     -0.131216414       0.018562544       0.066169588
                        -----------------------------------------
Magnitude (a.u.)       :      0.148124035
Magnitude (Debye)      :      0.376501375

Rotational constants in cm-1:             3.365911             2.651466             2.298291
Rotational constants in MHz :        100907.460317         79488.950813         68901.025694

                             ****ORCA TERMINATED NORMALLY****
TOTAL RUN TIME: 0 days 0 hours 0 minutes 4 seconds 883 msec
