                         Program Version 6.1.0  -  RELEASE   -
|  1> ! B3LYP def2-SVP d3 EnGrad
|  2> %pal nprocs 6 end
|  3> *xyz 0 1
|  4> C   1.45654666016659 0.01610070342542 -0.22329294209955
|  5> C   0.13494144270535 0.26798315275111 0.46177363060424
|  6> N   -0.87857322980578 -0.78620141428366 0.53812441900748
|  7> C   -1.12076172185253 0.37627715841243 -0.32483556184502
|  8> H   0.20955049204427 0.86066847546151 1.38383232327572
|  9> H   1.96453225429516 0.96305777791595 -0.47089639253583
| 10> H   2.1336014235801 -0.56699659767685 0.42381821192467
| 11> H   1.31616659904378 -0.54679631403704 -1.16161539475251
| 12> H   -0.59032093897086 -1.58746289349694 -0.02761247061931
| 13> H   -1.9265227464021 1.04531553440284 -0.00086687107211
| 14> H   -1.04722823480399 0.25489741712525 -1.41320895188779
| 15> *
| 16>
| 17>                          ****END OF INPUT****

CARTESIAN COORDINATES (ANGSTROEM)
---------------------------------
  C      1.456547    0.016101   -0.223293
  C      0.134941    0.267983    0.461774
  N     -0.878573   -0.786201    0.538124
  C     -1.120762    0.376277   -0.324836
  H      0.209550    0.860668    1.383832
  H      1.964532    0.963058   -0.470896
  H      2.133601   -0.566997    0.423818
  H      1.316167   -0.546796   -1.161615
  H     -0.590321   -1.587463   -0.027612
  H     -1.926523    1.045316   -0.000867
  H     -1.047228    0.254897   -1.413209

 Total Charge           Charge          ....    0
 Multiplicity           Mult            ....    1
 Number of Electrons    NEL             ....   32
 Basis Dimension        Dim             ....   91

ORBITAL ENERGIES
----------------

  NO   OCC          E(Eh)            E(eV)
   0   2.0000     -14.310255      -389.4018
   1   2.0000     -10.211970      -277.8818
   2   2.0000     -10.205950      -277.7180
   3   2.0000     -10.187364      -277.2123
   4   2.0000      -0.944868       -25.7112
   5   2.0000      -0.721519       -19.6335
   6   2.0000      -0.635151       -17.2833
   7   2.0000      -0.578351       -15.7377
   8   2.0000      -0.483991       -13.1701
   9   2.0000      -0.474361       -12.9080
  10   2.0000      -0.415624       -11.3097
  11   2.0000      -0.393585       -10.7100
  12   2.0000      -0.360857        -9.8194
  13   2.0000      -0.330176        -8.9845
  14   2.0000      -0.319651        -8.6982
  15   2.0000      -0.237103        -6.4519
  16   0.0000       0.057941         1.5766
  17   0.0000       0.082013         2.2317
  18   0.0000       0.103009         2.8030
  19   0.0000       0.114595         3.1183
  20   0.0000       0.118559         3.2262

MULLIKEN ATOMIC CHARGES
-----------------------
   0 C :    0.083241
   1 C :   -0.104889
   2 N :   -0.214554
   3 C :    0.039624
   4 H :    0.019475
   5 H :    0.020250
   6 H :    0.021479
   7 H :   -0.009662
   8 H :    0.100047
   9 H :    0.027569
  10 H :    0.017421
Sum of atomic charges:    0.0000000

LOEWDIN ATOMIC CHARGES
----------------------
   0 C :   -0.058323
   1 C :   -0.002704
   2 N :   -0.123318
   3 C :    0.004975
   4 H :    0.019385
   5 H :    0.030828
   6 H :    0.027914
   7 H :    0.020861
   8 H :    0.051306
   9 H :    0.018322
  10 H :    0.010755

  Mayer bond orders larger than 0.100000
B(  0-C ,  1-C ) :   1.0867 B(  0-C ,  5-H ) :   0.9587 B(  0-C ,  6-H ) :   0.9621
B(  0-C ,  7-H ) :   0.9478 B(  1-C ,  2-N ) :   0.9833 B(  1-C ,  3-C ) :   1.0520
B(  1-C ,  4-H ) :   0.9400 B(  2-N ,  3-C ) :   1.0008 B(  2-N ,  8-H ) :   0.9541
B(  3-C ,  9-H ) :   0.9487 B(  3-C , 10-H ) :   0.9500

Dispersion correction           -0.011286570
FINAL SINGLE POINT ENERGY      -173.007483661712
Dispersion correction             ... done (  0.0 sec)

DIPOLE MOMENT
-------------

Method             : SCF
Type of density    : Electron Density
Multiplicity       :   1
Irrep              :   0
Energy             :  -172.9961970915288987 Eh
Basis              : AO
                                X                 Y                 Z
Electronic contribution:     -2.017244795      -0.578103426       1.265541049
Nuclear contribution   :      2.454377758       0.697819999      -1.786612882
                        -----------------------------------------
Total Dipole Moment    :      0.437132963       0.119716573      -0.521071833
                        -----------------------------------------
Magnitude (a.u.)       :      0.690603461
Magnitude (Debye)      :      1.755374496

Rotational constants in cm-1:             0.561286             0.216993             0.193018
Rotational constants in MHz :         16826.935628          6505.276634          5786.533274

                             ****ORCA TERMINATED NORMALLY****
TOTAL RUN TIME: 0 days 0 hours 0 minutes 10 seconds 152 msec
