                         Program Version 6.1.0  -  RELEASE   -
|  1> ! B3LYP def2-SVP d3 EnGrad
|  2> %pal nprocs 6 end
|  3> *xyz 0 1
|  4> C   1.1894879476132 -0.77902008340434 -0.51469737173688
|  5> C   -0.08622748241589 -1.12689982220386 0.32364464976525
|  6> C   -1.27602867479992 -0.67155585509938 -0.50901377108258
|  7> C   -1.27601347654515 0.67158715664281 -0.50901124172697
|  8> C   -0.08620203839753 1.12690046781746 0.32364943687766
|  9> C   1.18950378947261 0.77899579447276 -0.51469604595797
| 10> H   -0.11770011014044 -2.16201722109584 0.69055162447768
| 11> H   2.09080552001429 1.18065568997406 -0.02513944513645
| 12> H   1.14190239168776 -1.20848491295008 -1.52596036070968
| 13> H   -1.92203002079978 1.33298425356802 -1.0906405354352
| 14> H   -0.11764931915887 2.16201689843447 0.69056131948635
| 15> H   1.1419221731425 1.20846162420377 -1.52595871119277
| 16> H   2.09077961394775 -1.18069801421398 -0.02513707002677
| 17> H   -1.92206133309113 -1.33293613821556 -1.09064422628168
| 18> C   -0.04125460929224 -2.44566957e-06 1.38068860544037
| 19> H   -0.91902969818267 5.89528956e-06 2.04411223856102
| 20> H   0.8815363269455 -1.42775503e-05 1.98433790467864
| 21> *
| 22>
| 23>                          ****END OF INPUT****

CARTESIAN COORDINATES (ANGSTROEM)
---------------------------------
  C      1.189488   -0.779020   -0.514697
  C     -0.086227   -1.126900    0.323645
  C     -1.276029   -0.671556   -0.509014
  C     -1.276013    0.671587   -0.509011
  C     -0.086202    1.126900    0.323649
  C      1.189504    0.778996   -0.514696
  H     -0.117700   -2.162017    0.690552
  H      2.090806    1.180656   -0.025139
  H      1.141902   -1.208485   -1.525960
  H     -1.922030    1.332984   -1.090641
  H     -0.117649    2.162017    0.690561
  H      1.141922    1.208462   -1.525959
  H      2.090780   -1.180698   -0.025137
  H     -1.922061   -1.332936   -1.090644
  C     -0.041255   -0.000002    1.380689
  H     -0.919030    0.000006    2.044112
  H      0.881536   -0.000014    1.984338

 Total Charge           Charge          ....    0
 Multiplicity           Mult            ....    1
 Number of Electrons    NEL             ....   52
 Basis Dimension        Dim             ....  148

ORBITAL ENERGIES
----------------

  NO   OCC          E(Eh)            E(eV)
   0   2.0000     -10.185708      -277.1672
   1   2.0000     -10.185687      -277.1666
   2   2.0000     -10.177977      -276.9568
   3   2.0000     -10.177941      -276.9559
   4   2.0000     -10.176583      -276.9189
   5   2.0000     -10.174508      -276.8624
   6   2.0000     -10.173780      -276.8426
   7   2.0000      -0.869706       -23.6659
   8   2.0000      -0.728787       -19.8313
   9   2.0000      -0.702977       -19.1290
  10   2.0000      -0.681338       -18.5401
  11   2.0000      -0.570240       -15.5170
  12   2.0000      -0.547336       -14.8938
  13   2.0000      -0.507784       -13.8175
  14   2.0000      -0.502411       -13.6713
  15   2.0000      -0.467962       -12.7339
  16   2.0000      -0.434463       -11.8223
  17   2.0000      -0.391701       -10.6587
  18   2.0000      -0.377618       -10.2755
  19   2.0000      -0.345960        -9.4140
  20   2.0000      -0.344064        -9.3625
  21   2.0000      -0.340113        -9.2549
  22   2.0000      -0.331077        -9.0091
  23   2.0000      -0.322368        -8.7721
  24   2.0000      -0.300346        -8.1728
  25   2.0000      -0.236853        -6.4451
  26   0.0000       0.015832         0.4308
  27   0.0000       0.059770         1.6264
  28   0.0000       0.096238         2.6188
  29   0.0000       0.098829         2.6893
  30   0.0000       0.109357         2.9758

MULLIKEN ATOMIC CHARGES
-----------------------
   0 C :    0.095404
   1 C :   -0.084306
   2 C :   -0.010731
   3 C :   -0.010731
   4 C :   -0.084306
   5 C :    0.095404
   6 H :   -0.016883
   7 H :   -0.005335
   8 H :   -0.007985
   9 H :   -0.016408
  10 H :   -0.016883
  11 H :   -0.007986
  12 H :   -0.005335
  13 H :   -0.016408
  14 C :    0.094808
  15 H :    0.005038
  16 H :   -0.007356
Sum of atomic charges:   -0.0000000

LOEWDIN ATOMIC CHARGES
----------------------
   0 C :   -0.020565
   1 C :   -0.027420
   2 C :   -0.029008
   3 C :   -0.029008
   4 C :   -0.027419
   5 C :   -0.020565
   6 H :    0.013262
   7 H :    0.018202
   8 H :    0.017273
   9 H :    0.017342
  10 H :    0.013262
  11 H :    0.017273
  12 H :    0.018202
  13 H :    0.017342
  14 C :   -0.008831
  15 H :    0.018245
  16 H :    0.012412

  Mayer bond orders larger than 0.100000
B(  0-C ,  1-C ) :   1.0480 B(  0-C ,  5-C ) :   1.1033 B(  0-C ,  8-H ) :   0.9284
B(  0-C , 12-H ) :   0.9288 B(  1-C ,  2-C ) :   0.9690 B(  1-C ,  6-H ) :   0.9506
B(  1-C , 14-C ) :   1.0105 B(  2-C ,  3-C ) :   1.8353 B(  2-C , 13-H ) :   1.0004
B(  3-C ,  4-C ) :   0.9690 B(  3-C ,  9-H ) :   1.0004 B(  4-C ,  5-C ) :   1.0480
B(  4-C , 10-H ) :   0.9506 B(  4-C , 14-C ) :   1.0105 B(  5-C ,  7-H ) :   0.9288
B(  5-C , 11-H ) :   0.9284 B( 14-C , 15-H ) :   0.9448 B( 14-C , 16-H ) :   0.9467

Dispersion correction           -0.028499321
FINAL SINGLE POINT ENERGY      -272.370459475748
Dispersion correction             ... done (  0.1 sec)

DIPOLE MOMENT
-------------

Method             : SCF
Type of density    : Electron Density
Multiplicity       :   1
Irrep              :   0
Energy             :  -272.3419601551800611 Eh
Basis              : AO
                                X                 Y                 Z
Electronic contribution:     -2.321210756       0.000027097      -0.147943272
Nuclear contribution   :      2.430243935      -0.000028189       0.128884646
                        -----------------------------------------
Total Dipole Moment    :      0.109033179      -0.000001092      -0.019058626
                        -----------------------------------------
Magnitude (a.u.)       :      0.110686338
Magnitude (Debye)      :      0.281342313

Rotational constants in cm-1:             0.130767             0.113877             0.100060
Rotational constants in MHz :          3920.302685          3413.936449          2999.712790

                             ****ORCA TERMINATED NORMALLY****
TOTAL RUN TIME: 0 days 0 hours 0 minutes 25 seconds 670 msec
