                         Program Version 6.1.0  -  RELEASE   -
|  1> ! B3LYP def2-SVP d3 EnGrad
|  2> %pal nprocs 6 end
|  3> *xyz 0 1
|  4> H   -1.91199457638858 -0.05794113269695 1.88765362451422
|  5> C   -1.91715975521094 -0.04621373620495 0.7852445871901
|  6> C   -1.09522003209042 1.11572205080519 0.17981610269107
|  7> C   -1.03895556692527 0.67799217839836 -1.27432585203827
|  8> C   -1.00121758049782 -0.6638341381438 -1.29153179652762
|  9> C   -1.02415685076894 -1.14027011794051 0.15368164453413
| 10> H   -2.95418982959295 -0.07442206180819 0.41886134383276
| 11> C   0.35763244984453 -0.77053218753125 0.79796346673482
| 12> H   -1.45250197153575 2.13777359637431 0.36677665013137
| 13> H   -0.93161933482758 1.349825730826 -2.1278276637992
| 14> H   -0.86663384955375 -1.30594587717582 -2.16383763599718
| 15> C   1.63693848265769 -1.15974676760964 0.01569194145089
| 16> H   -1.32381356201551 -2.18588854769264 0.3119361738925
| 17> H   2.34083756081338 -1.74002493844809 0.6389181369278
| 18> H   0.38715318982416 -1.17586014829563 1.81994302835422
| 19> C   0.31156022982431 0.80005688618615 0.81987584843792
| 20> C   1.53376792308183 1.21349966174715 0.04822665968073
| 21> H   0.32140964504189 1.20600885516021 1.84630652594261
| 22> H   1.79635450394633 2.2600336602764 -0.13111768698829
| 23> C   2.23595952500406 0.1639487406932 -0.39571939693181
| 24> H   1.41587854412741 -1.79296675593824 -0.86241107538894
| 25> H   3.15026985524189 0.23403204901877 -0.99253961664384
| 26> *
| 27>
| 28>                          ****END OF INPUT****

CARTESIAN COORDINATES (ANGSTROEM)
---------------------------------
  H     -1.911995   -0.057941    1.887654
  C     -1.917160   -0.046214    0.785245
  C     -1.095220    1.115722    0.179816
  C     -1.038956    0.677992   -1.274326
  C     -1.001218   -0.663834   -1.291532
  C     -1.024157   -1.140270    0.153682
  H     -2.954190   -0.074422    0.418861
  C      0.357632   -0.770532    0.797963
  H     -1.452502    2.137774    0.366777
  H     -0.931619    1.349826   -2.127828
  H     -0.866634   -1.305946   -2.163838
  C      1.636938   -1.159747    0.015692
  H     -1.323814   -2.185889    0.311936
  H      2.340838   -1.740025    0.638918
  H      0.387153   -1.175860    1.819943
  C      0.311560    0.800057    0.819876
  C      1.533768    1.213500    0.048227
  H      0.321410    1.206009    1.846307
  H      1.796355    2.260034   -0.131118
  C      2.235960    0.163949   -0.395719
  H      1.415879   -1.792967   -0.862411
  H      3.150270    0.234032   -0.992540

 Total Charge           Charge          ....    0
 Multiplicity           Mult            ....    1
 Number of Electrons    NEL             ....   72
 Basis Dimension        Dim             ....  200

ORBITAL ENERGIES
----------------

  NO   OCC          E(Eh)            E(eV)
   0   2.0000     -10.186136      -277.1789
   1   2.0000     -10.185466      -277.1606
   2   2.0000     -10.182579      -277.0821
   3   2.0000     -10.181380      -277.0494
   4   2.0000     -10.178063      -276.9592
   5   2.0000     -10.177693      -276.9491
   6   2.0000     -10.174996      -276.8757
   7   2.0000     -10.174265      -276.8558
   8   2.0000     -10.173181      -276.8263
   9   2.0000     -10.172151      -276.7983
  10   2.0000      -0.877680       -23.8829
  11   2.0000      -0.803391       -21.8614
  12   2.0000      -0.721720       -19.6390
  13   2.0000      -0.713856       -19.4250
  14   2.0000      -0.665598       -18.1118
  15   2.0000      -0.656411       -17.8619
  16   2.0000      -0.554106       -15.0780
  17   2.0000      -0.550784       -14.9876
  18   2.0000      -0.527195       -14.3457
  19   2.0000      -0.509050       -13.8520
  20   2.0000      -0.490259       -13.3406
  21   2.0000      -0.479761       -13.0550
  22   2.0000      -0.459036       -12.4910
  23   2.0000      -0.412125       -11.2145
  24   2.0000      -0.392870       -10.6905
  25   2.0000      -0.386204       -10.5091
  26   2.0000      -0.369295       -10.0490
  27   2.0000      -0.363217        -9.8836
  28   2.0000      -0.344583        -9.3766
  29   2.0000      -0.341810        -9.3011
  30   2.0000      -0.330161        -8.9842
  31   2.0000      -0.318248        -8.6600
  32   2.0000      -0.314554        -8.5595
  33   2.0000      -0.305058        -8.3011
  34   2.0000      -0.236777        -6.4430
  35   2.0000      -0.235269        -6.4020
  36   0.0000       0.013167         0.3583
  37   0.0000       0.024466         0.6658
  38   0.0000       0.057486         1.5643
  39   0.0000       0.086758         2.3608
  40   0.0000       0.093770         2.5516

MULLIKEN ATOMIC CHARGES
-----------------------
   0 H :   -0.011538
   1 C :    0.117666
   2 C :   -0.024453
   3 C :    0.008238
   4 C :   -0.020212
   5 C :   -0.014093
   6 H :    0.002033
   7 C :   -0.071829
   8 H :   -0.022930
   9 H :   -0.017539
  10 H :   -0.016312
  11 C :    0.198230
  12 H :   -0.021615
  13 H :    0.001583
  14 H :   -0.014282
  15 C :    0.028106
  16 C :    0.023963
  17 H :   -0.006493
  18 H :   -0.018624
  19 C :   -0.100919
  20 H :   -0.004442
  21 H :   -0.014537
Sum of atomic charges:   -0.0000000

LOEWDIN ATOMIC CHARGES
----------------------
   0 H :    0.012355
   1 C :   -0.004981
   2 C :   -0.021197
   3 C :   -0.019857
   4 C :   -0.028957
   5 C :   -0.020530
   6 H :    0.017830
   7 C :   -0.007439
   8 H :    0.012469
   9 H :    0.017861
  10 H :    0.016654
  11 C :   -0.028434
  12 H :    0.012485
  13 H :    0.024242
  14 H :    0.018445
  15 C :   -0.016087
  16 C :   -0.034531
  17 H :    0.019817
  18 H :    0.018028
  19 C :   -0.028581
  20 H :    0.022912
  21 H :    0.017498

  Mayer bond orders larger than 0.100000
B(  0-H ,  1-C ) :   0.9363 B(  1-C ,  2-C ) :   1.0226 B(  1-C ,  5-C ) :   1.0222
B(  1-C ,  6-H ) :   0.9408 B(  2-C ,  3-C ) :   0.9635 B(  2-C ,  8-H ) :   0.9528
B(  2-C , 15-C ) :   1.0046 B(  3-C ,  4-C ) :   1.8273 B(  3-C ,  9-H ) :   0.9960
B(  4-C ,  5-C ) :   0.9608 B(  4-C , 10-H ) :   0.9979 B(  5-C ,  7-C ) :   1.0163
B(  5-C , 12-H ) :   0.9510 B(  7-C , 11-C ) :   1.0489 B(  7-C , 14-H ) :   0.8971
B(  7-C , 15-C ) :   1.0532 B( 11-C , 13-H ) :   0.9207 B( 11-C , 19-C ) :   1.0219
B( 11-C , 20-H ) :   0.9122 B( 15-C , 16-C ) :   0.9860 B( 15-C , 17-H ) :   0.8941
B( 16-C , 18-H ) :   0.9903 B( 16-C , 19-C ) :   1.8690 B( 19-C , 21-H ) :   0.9821

Dispersion correction           -0.044672037
FINAL SINGLE POINT ENERGY      -387.731964841967
Dispersion correction             ... done (  0.0 sec)

DIPOLE MOMENT
-------------

Method             : SCF
Type of density    : Electron Density
Multiplicity       :   1
Irrep              :   0
Energy             :  -387.6872928051670897 Eh
Basis              : AO
                                X                 Y                 Z
Electronic contribution:      0.065202614       1.135712962      -0.955997392
Nuclear contribution   :     -0.023719252      -1.171218740       1.027881952
                        -----------------------------------------
Total Dipole Moment    :      0.041483362      -0.035505778       0.071884559
                        -----------------------------------------
Magnitude (a.u.)       :      0.090271366
Magnitude (Debye)      :      0.229451577

Rotational constants in cm-1:             0.082172             0.048735             0.044814
Rotational constants in MHz :          2463.461628          1461.024468          1343.479663

                             ****ORCA TERMINATED NORMALLY****
TOTAL RUN TIME: 0 days 0 hours 0 minutes 36 seconds 197 msec
