                         Program Version 6.1.0  -  RELEASE   -
|  1> ! B3LYP def2-SVP d3 EnGrad
|  2> %pal nprocs 6 end
|  3> *xyz 0 1
|  4> C   0.51501864772767 1.39771436995221 -1.41283514414045
|  5> C   0.79818917182075 0.18232620537808 -0.49630979656744
|  6> O   1.15598724367829 -0.92237891958824 -1.11324828259836
|  7> F   -0.5256836507689 1.15395752426571 -2.21182703166847
|  8> F   1.58975405034443 1.66808701141122 -2.18109071889207
|  9> F   0.24934015329016 2.50958835044153 -0.70442154643404
| 10> O   -0.20562871919944 0.11790657710184 0.4855473357843
| 11> C   -1.31060197423727 -0.74218371938374 0.18729308862001
| 12> C   -1.94615427222346 -1.16917711169597 1.49492726646592
| 13> N   2.10227367980022 0.42176129520716 0.30552281867828
| 14> H   -2.03637168449475 -0.19855741998332 -0.44441736214493
| 15> H   -0.93749842102278 -1.60331868409117 -0.38829895869938
| 16> H   -2.82109225103 -1.81030865794339 1.30243177271502
| 17> H   -1.22797876033579 -1.7345197278052 2.10974317400693
| 18> H   -2.28039783143005 -0.29333205640849 2.07354141811764
| 19> H   2.72689285860594 1.12558671307009 -0.09720887670119
| 20> H   1.96128346652154 0.56475976105625 1.30977653571733
| 21> H   2.19266829295343 -0.66791151098458 -0.21912569225907
| 22> *
| 23>
| 24>                          ****END OF INPUT****

CARTESIAN COORDINATES (ANGSTROEM)
---------------------------------
  C      0.515019    1.397714   -1.412835
  C      0.798189    0.182326   -0.496310
  O      1.155987   -0.922379   -1.113248
  F     -0.525684    1.153958   -2.211827
  F      1.589754    1.668087   -2.181091
  F      0.249340    2.509588   -0.704422
  O     -0.205629    0.117907    0.485547
  C     -1.310602   -0.742184    0.187293
  C     -1.946154   -1.169177    1.494927
  N      2.102274    0.421761    0.305523
  H     -2.036372   -0.198557   -0.444417
  H     -0.937498   -1.603319   -0.388299
  H     -2.821092   -1.810309    1.302432
  H     -1.227979   -1.734520    2.109743
  H     -2.280398   -0.293332    2.073541
  H      2.726893    1.125587   -0.097209
  H      1.961283    0.564760    1.309777
  H      2.192668   -0.667912   -0.219126

 Total Charge           Charge          ....    0
 Multiplicity           Mult            ....    1
 Number of Electrons    NEL             ....   82
 Basis Dimension        Dim             ....  180

ORBITAL ENERGIES
----------------

  NO   OCC          E(Eh)            E(eV)
   0   2.0000     -24.717787      -672.6052
   1   2.0000     -24.716808      -672.5786
   2   2.0000     -24.714641      -672.5196
   3   2.0000     -19.143233      -520.9139
   4   2.0000     -19.076514      -519.0983
   5   2.0000     -14.402251      -391.9052
   6   2.0000     -10.420835      -283.5653
   7   2.0000     -10.331420      -281.1322
   8   2.0000     -10.227163      -278.2952
   9   2.0000     -10.179043      -276.9859
  10   2.0000      -1.295421       -35.2502
  11   2.0000      -1.205792       -32.8113
  12   2.0000      -1.201833       -32.7035
  13   2.0000      -1.071562       -29.1587
  14   2.0000      -0.985476       -26.8162
  15   2.0000      -0.904469       -24.6118
  16   2.0000      -0.758746       -20.6465
  17   2.0000      -0.718442       -19.5498
  18   2.0000      -0.644152       -17.5283
  19   2.0000      -0.617691       -16.8082
  20   2.0000      -0.595629       -16.2079
  21   2.0000      -0.587805       -15.9950
  22   2.0000      -0.573669       -15.6103
  23   2.0000      -0.560769       -15.2593
  24   2.0000      -0.521138       -14.1809
  25   2.0000      -0.470073       -12.7913
  26   2.0000      -0.465788       -12.6747
  27   2.0000      -0.465068       -12.6551
  28   2.0000      -0.459320       -12.4987
  29   2.0000      -0.446169       -12.1409
  30   2.0000      -0.427546       -11.6341
  31   2.0000      -0.421400       -11.4669
  32   2.0000      -0.407641       -11.0925
  33   2.0000      -0.401598       -10.9280
  34   2.0000      -0.388441       -10.5700
  35   2.0000      -0.383490       -10.4353
  36   2.0000      -0.360334        -9.8052
  37   2.0000      -0.333174        -9.0661
  38   2.0000      -0.276413        -7.5216
  39   2.0000      -0.266875        -7.2620
  40   2.0000      -0.256132        -6.9697
  41   0.0000       0.029989         0.8160
  42   0.0000       0.067740         1.8433
  43   0.0000       0.077467         2.1080
  44   0.0000       0.081444         2.2162
  45   0.0000       0.116933         3.1819

MULLIKEN ATOMIC CHARGES
-----------------------
   0 C :    0.506936
   1 C :    0.110991
   2 O :   -0.411662
   3 F :   -0.152869
   4 F :   -0.180683
   5 F :   -0.173176
   6 O :   -0.386573
   7 C :    0.193900
   8 C :    0.000329
   9 N :   -0.084016
  10 H :   -0.000769
  11 H :    0.023134
  12 H :    0.014284
  13 H :    0.011127
  14 H :    0.017213
  15 H :    0.146296
  16 H :    0.151549
  17 H :    0.213989
Sum of atomic charges:   -0.0000000

LOEWDIN ATOMIC CHARGES
----------------------
   0 C :    0.127153
   1 C :    0.052229
   2 O :   -0.336863
   3 F :   -0.041617
   4 F :   -0.070103
   5 F :   -0.069528
   6 O :   -0.180777
   7 C :    0.083779
   8 C :   -0.064368
   9 N :    0.110403
  10 H :    0.006090
  11 H :    0.015281
  12 H :    0.029897
  13 H :    0.023075
  14 H :    0.024841
  15 H :    0.088145
  16 H :    0.089502
  17 H :    0.112861

  Mayer bond orders larger than 0.100000
B(  0-C ,  1-C ) :   0.8411 B(  0-C ,  3-F ) :   1.1668 B(  0-C ,  4-F ) :   1.1107
B(  0-C ,  5-F ) :   1.1378 B(  1-C ,  2-O ) :   1.4947 B(  1-C ,  6-O ) :   1.0371
B(  1-C ,  9-N ) :   0.8483 B(  2-O , 17-H ) :   0.3977 B(  6-O ,  7-C ) :   0.9220
B(  7-C ,  8-C ) :   1.1147 B(  7-C , 10-H ) :   0.9492 B(  7-C , 11-H ) :   0.9359
B(  8-C , 12-H ) :   0.9598 B(  8-C , 13-H ) :   0.9672 B(  8-C , 14-H ) :   0.9665
B(  9-N , 15-H ) :   0.9418 B(  9-N , 16-H ) :   0.9299 B(  9-N , 17-H ) :   0.6003

Dispersion correction           -0.023975682
FINAL SINGLE POINT ENERGY      -661.138395163108
Dispersion correction             ... done (  0.0 sec)

DIPOLE MOMENT
-------------

Method             : SCF
Type of density    : Electron Density
Multiplicity       :   1
Irrep              :   0
Energy             :  -661.1144194813522290 Eh
Basis              : AO
                                X                 Y                 Z
Electronic contribution:      5.507687976      12.162443495     -11.732647243
Nuclear contribution   :     -4.775153391     -11.845801039      12.993993912
                        -----------------------------------------
Total Dipole Moment    :      0.732534585       0.316642455       1.261346669
                        -----------------------------------------
Magnitude (a.u.)       :      1.492603357
Magnitude (Debye)      :      3.793896228

Rotational constants in cm-1:             0.066694             0.031974             0.028334
Rotational constants in MHz :          1999.432113           958.566373           849.423657

                             ****ORCA TERMINATED NORMALLY****
TOTAL RUN TIME: 0 days 0 hours 0 minutes 26 seconds 867 msec
