                         Program Version 6.1.0  -  RELEASE   -
|  1> ! B3LYP def2-SVP d3 EnGrad
|  2> %pal nprocs 6 end
|  3> *xyz 0 1
|  4> N   1.38689780924866 -1.2693279830454 0.0277584537236
|  5> B   2.47270711367106 -0.39567266489252 0.04057550379966
|  6> B   -2.08092781775557 -0.22033905190783 -0.45514934546167
|  7> N   -1.34043522165432 0.38550197646353 0.5512705332892
|  8> H   -0.36316330605062 0.16241535898796 0.72034247690023
|  9> H   1.2081699984551 -1.94895373561055 0.75987833157488
| 10> H   0.73666915065464 -1.343728698203 -0.74937111307793
| 11> H   3.21845117431792 -0.40025523143476 0.99068914019624
| 12> H   2.6314368245275 0.35312441012109 -0.89242948433064
| 13> H   -0.06018305440107 2.71614149826936 -0.21673217065527
| 14> H   -3.23983369512212 0.07715159775546 -0.61578395682641
| 15> H   -1.54445412452566 -1.04741827697479 -1.15974744171737
| 16> H   0.26296419747897 3.40410400198694 -0.16998253225556
| 17> H   -1.72068904884449 1.08368479848446 1.18066860484105
| 18> *
| 19>
| 20>                          ****END OF INPUT****

CARTESIAN COORDINATES (ANGSTROEM)
---------------------------------
  N      1.386898   -1.269328    0.027758
  B      2.472707   -0.395673    0.040576
  B     -2.080928   -0.220339   -0.455149
  N     -1.340435    0.385502    0.551271
  H     -0.363163    0.162415    0.720342
  H      1.208170   -1.948954    0.759878
  H      0.736669   -1.343729   -0.749371
  H      3.218451   -0.400255    0.990689
  H      2.631437    0.353124   -0.892429
  H     -0.060183    2.716141   -0.216732
  H     -3.239834    0.077152   -0.615784
  H     -1.544454   -1.047418   -1.159747
  H      0.262964    3.404104   -0.169983
  H     -1.720689    1.083685    1.180669

 Total Charge           Charge          ....    0
 Multiplicity           Mult            ....    1
 Number of Electrons    NEL             ....   34
 Basis Dimension        Dim             ....  106

ORBITAL ENERGIES
----------------

  NO   OCC          E(Eh)            E(eV)
   0   2.0000     -14.339933      -390.2094
   1   2.0000     -14.331813      -389.9885
   2   2.0000      -6.750653      -183.6946
   3   2.0000      -6.747323      -183.6040
   4   2.0000      -0.866239       -23.5716
   5   2.0000      -0.855700       -23.2848
   6   2.0000      -0.529012       -14.3952
   7   2.0000      -0.522487       -14.2176
   8   2.0000      -0.517585       -14.0842
   9   2.0000      -0.509138       -13.8543
  10   2.0000      -0.421147       -11.4600
  11   2.0000      -0.394362       -10.7311
  12   2.0000      -0.390803       -10.6343
  13   2.0000      -0.322524        -8.7763
  14   2.0000      -0.318025        -8.6539
  15   2.0000      -0.310438        -8.4474
  16   2.0000      -0.303722        -8.2647
  17   0.0000       0.001914         0.0521
  18   0.0000       0.008002         0.2177
  19   0.0000       0.042513         1.1568
  20   0.0000       0.068178         1.8552
  21   0.0000       0.093791         2.5522

MULLIKEN ATOMIC CHARGES
-----------------------
   0 N :   -0.081365
   1 B :   -0.053113
   2 B :   -0.069717
   3 N :   -0.062747
   4 H :    0.101898
   5 H :    0.123560
   6 H :    0.134219
   7 H :   -0.045396
   8 H :   -0.041491
   9 H :   -0.004246
  10 H :   -0.042882
  11 H :   -0.068233
  12 H :   -0.013992
  13 H :    0.123505
Sum of atomic charges:   -0.0000000

LOEWDIN ATOMIC CHARGES
----------------------
   0 N :    0.060585
   1 B :   -0.116493
   2 B :   -0.131547
   3 N :    0.061570
   4 H :    0.068888
   5 H :    0.083086
   6 H :    0.086476
   7 H :   -0.044916
   8 H :   -0.042394
   9 H :   -0.002710
  10 H :   -0.044073
  11 H :   -0.054668
  12 H :   -0.006997
  13 H :    0.083193

  Mayer bond orders larger than 0.100000
B(  0-N ,  1-B ) :   1.5513 B(  0-N ,  5-H ) :   0.9581 B(  0-N ,  6-H ) :   0.9451
B(  1-B ,  7-H ) :   0.9703 B(  1-B ,  8-H ) :   0.9712 B(  2-B ,  3-N ) :   1.6085
B(  2-B , 10-H ) :   0.9683 B(  2-B , 11-H ) :   0.9526 B(  3-N ,  4-H ) :   0.9321
B(  3-N , 13-H ) :   0.9558 B(  9-H , 12-H ) :   0.9861

Dispersion correction           -0.011237349
FINAL SINGLE POINT ENERGY      -165.033657716773
Dispersion correction             ... done (  0.0 sec)

DIPOLE MOMENT
-------------

Method             : SCF
Type of density    : Electron Density
Multiplicity       :   1
Irrep              :   0
Energy             :  -165.0224203680133428 Eh
Basis              : AO
                                X                 Y                 Z
Electronic contribution:     -0.082266939      -5.690141057       0.877011730
Nuclear contribution   :     -0.031444238       5.434232197      -0.285088226
                        -----------------------------------------
Total Dipole Moment    :     -0.113711177      -0.255908860       0.591923505
                        -----------------------------------------
Magnitude (a.u.)       :      0.654822886
Magnitude (Debye)      :      1.664427502

Rotational constants in cm-1:             0.316865             0.076014             0.067151
Rotational constants in MHz :          9499.360541          2278.841183          2013.150397

                             ****ORCA TERMINATED NORMALLY****
TOTAL RUN TIME: 0 days 0 hours 0 minutes 11 seconds 66 msec
