                         Program Version 6.1.0  -  RELEASE   -
|  1> ! B3LYP def2-SVP d3 EnGrad
|  2> %pal nprocs 6 end
|  3> *xyz 0 1
|  4> N   1.23358448790938 -0.79559161992048 0.11808614243182
|  5> B   1.58798479435012 0.67116811404881 0.38783760672795
|  6> B   -2.27808094514293 -0.30288926981727 0.05454173270066
|  7> N   -1.09641418685448 -0.05681645779251 -0.68743815925956
|  8> H   -0.09926752411415 -0.62619841259651 -0.39343922182832
|  9> H   1.21358963421884 -1.38177049914395 0.95192353116271
| 10> H   1.83607791266545 -1.24728736765714 -0.56841924123035
| 11> H   1.75245542917927 0.9561032409234 1.55771966263355
| 12> H   2.36257332691013 1.15093222835983 -0.417444078118
| 13> H   0.47490313917637 1.44176854645522 0.13257967103438
| 14> H   -3.36101394038118 -0.26811860362268 -0.47865669785783
| 15> H   -2.16661623429508 -0.54133532207758 1.23388197684007
| 16> H   -0.26966277800546 0.8883849729448 -0.20190383044041
| 17> H   -1.19011311561626 0.11165044989609 -1.68926909479667
| 18> *
| 19>
| 20>                          ****END OF INPUT****

CARTESIAN COORDINATES (ANGSTROEM)
---------------------------------
  N      1.233584   -0.795592    0.118086
  B      1.587985    0.671168    0.387838
  B     -2.278081   -0.302889    0.054542
  N     -1.096414   -0.056816   -0.687438
  H     -0.099268   -0.626198   -0.393439
  H      1.213590   -1.381770    0.951924
  H      1.836078   -1.247287   -0.568419
  H      1.752455    0.956103    1.557720
  H      2.362573    1.150932   -0.417444
  H      0.474903    1.441769    0.132580
  H     -3.361014   -0.268119   -0.478657
  H     -2.166616   -0.541335    1.233882
  H     -0.269663    0.888385   -0.201904
  H     -1.190113    0.111650   -1.689269

 Total Charge           Charge          ....    0
 Multiplicity           Mult            ....    1
 Number of Electrons    NEL             ....   34
 Basis Dimension        Dim             ....  106

ORBITAL ENERGIES
----------------

  NO   OCC          E(Eh)            E(eV)
   0   2.0000     -14.336975      -390.1289
   1   2.0000     -14.326445      -389.8424
   2   2.0000      -6.766308      -184.1206
   3   2.0000      -6.726527      -183.0381
   4   2.0000      -0.881883       -23.9973
   5   2.0000      -0.844160       -22.9708
   6   2.0000      -0.563374       -15.3302
   7   2.0000      -0.526084       -14.3155
   8   2.0000      -0.498327       -13.5602
   9   2.0000      -0.493482       -13.4283
  10   2.0000      -0.431708       -11.7474
  11   2.0000      -0.406560       -11.0631
  12   2.0000      -0.369629       -10.0581
  13   2.0000      -0.344132        -9.3643
  14   2.0000      -0.297201        -8.0873
  15   2.0000      -0.293782        -7.9942
  16   2.0000      -0.260963        -7.1012
  17   0.0000      -0.029128        -0.7926
  18   0.0000       0.041390         1.1263
  19   0.0000       0.062556         1.7022
  20   0.0000       0.082786         2.2527
  21   0.0000       0.106586         2.9004

MULLIKEN ATOMIC CHARGES
-----------------------
   0 N :   -0.166048
   1 B :   -0.153795
   2 B :   -0.002343
   3 N :   -0.134286
   4 H :    0.155683
   5 H :    0.125749
   6 H :    0.122928
   7 H :   -0.046938
   8 H :   -0.045451
   9 H :   -0.049461
  10 H :   -0.036486
  11 H :   -0.044317
  12 H :    0.144651
  13 H :    0.130115
Sum of atomic charges:    0.0000000

LOEWDIN ATOMIC CHARGES
----------------------
   0 N :    0.013329
   1 B :   -0.274518
   2 B :   -0.058646
   3 N :    0.042795
   4 H :    0.068441
   5 H :    0.079132
   6 H :    0.077947
   7 H :   -0.043036
   8 H :   -0.045038
   9 H :    0.012917
  10 H :   -0.043150
  11 H :   -0.042360
  12 H :    0.130110
  13 H :    0.082077

  Mayer bond orders larger than 0.100000
B(  0-N ,  1-B ) :   1.0211 B(  0-N ,  4-H ) :   0.4240 B(  0-N ,  5-H ) :   0.9667
B(  0-N ,  6-H ) :   0.9662 B(  1-B ,  7-H ) :   0.9697 B(  1-B ,  8-H ) :   0.9730
B(  1-B ,  9-H ) :   0.5053 B(  1-B , 12-H ) :   0.1417 B(  2-B ,  3-N ) :   1.3827
B(  2-B , 10-H ) :   0.9708 B(  2-B , 11-H ) :   0.9684 B(  3-N ,  4-H ) :   0.6095
B(  3-N , 12-H ) :   0.4478 B(  3-N , 13-H ) :   0.9426 B(  9-H , 12-H ) :   0.4094

Dispersion correction           -0.014755429
FINAL SINGLE POINT ENERGY      -164.980437289934
Dispersion correction             ... done (  0.0 sec)

DIPOLE MOMENT
-------------

Method             : SCF
Type of density    : Electron Density
Multiplicity       :   1
Irrep              :   0
Energy             :  -164.9656818606420643 Eh
Basis              : AO
                                X                 Y                 Z
Electronic contribution:     -1.905292650      -2.018842845      -0.897109104
Nuclear contribution   :      1.698603873       1.157028308       0.186035752
                        -----------------------------------------
Total Dipole Moment    :     -0.206688777      -0.861814537      -0.711073352
                        -----------------------------------------
Magnitude (a.u.)       :      1.136252551
Magnitude (Debye)      :      2.888124460

Rotational constants in cm-1:             0.459707             0.099085             0.094235
Rotational constants in MHz :         13781.654318          2970.508165          2825.102674

                             ****ORCA TERMINATED NORMALLY****
TOTAL RUN TIME: 0 days 0 hours 0 minutes 12 seconds 205 msec
