                         Program Version 6.1.0  -  RELEASE   -
|  1> ! B3LYP def2-SVP d3 EnGrad
|  2> %pal nprocs 6 end
|  3> *xyz 0 1
|  4> N   1.99794719418655 0.41207145182213 0.53295327166091
|  5> B   3.17428131745217 0.4069621342745 -0.21359958889388
|  6> N   0.2611280913469 -2.2914409089333 0.06223955418147
|  7> B   -0.95279036460176 -1.62995246209237 -0.04961813881406
|  8> H   1.14038954318757 -1.80261225480356 0.20661207116915
|  9> H   4.23216657916484 0.28728301986017 0.35707023198172
| 10> H   3.10636937646355 0.50948828288859 -1.41454792671679
| 11> H   1.0757950532012 0.54521829162881 0.12790595862297
| 12> H   1.98106666958511 0.36623664345693 1.54648935286366
| 13> H   0.35476062986045 -3.2982095237723 -0.01326442430671
| 14> H   -1.9684598385892 -2.25631983664483 -0.23374590362244
| 15> H   -0.97494625125738 -0.42141183768477 0.04181954187401
| 16> *
| 17>
| 18>                          ****END OF INPUT****

CARTESIAN COORDINATES (ANGSTROEM)
---------------------------------
  N      1.997947    0.412071    0.532953
  B      3.174281    0.406962   -0.213600
  N      0.261128   -2.291441    0.062240
  B     -0.952790   -1.629952   -0.049618
  H      1.140390   -1.802612    0.206612
  H      4.232167    0.287283    0.357070
  H      3.106369    0.509488   -1.414548
  H      1.075795    0.545218    0.127906
  H      1.981067    0.366237    1.546489
  H      0.354761   -3.298210   -0.013264
  H     -1.968460   -2.256320   -0.233746
  H     -0.974946   -0.421412    0.041820

 Total Charge           Charge          ....    0
 Multiplicity           Mult            ....    1
 Number of Electrons    NEL             ....   32
 Basis Dimension        Dim             ....   96

ORBITAL ENERGIES
----------------

  NO   OCC          E(Eh)            E(eV)
   0   2.0000     -14.338573      -390.1724
   1   2.0000     -14.330018      -389.9396
   2   2.0000      -6.749798      -183.6713
   3   2.0000      -6.745484      -183.5540
   4   2.0000      -0.864793       -23.5322
   5   2.0000      -0.854206       -23.2441
   6   2.0000      -0.528262       -14.3747
   7   2.0000      -0.521055       -14.1786
   8   2.0000      -0.516521       -14.0552
   9   2.0000      -0.506998       -13.7961
  10   2.0000      -0.393971       -10.7205
  11   2.0000      -0.389628       -10.6023
  12   2.0000      -0.321751        -8.7553
  13   2.0000      -0.316534        -8.6133
  14   2.0000      -0.309365        -8.4183
  15   2.0000      -0.302232        -8.2242
  16   0.0000       0.003248         0.0884
  17   0.0000       0.010340         0.2814
  18   0.0000       0.045958         1.2506
  19   0.0000       0.074492         2.0270
  20   0.0000       0.102714         2.7950

MULLIKEN ATOMIC CHARGES
-----------------------
   0 N :   -0.080881
   1 B :   -0.056819
   2 N :   -0.061210
   3 B :   -0.079190
   4 H :    0.101449
   5 H :   -0.046062
   6 H :   -0.043477
   7 H :    0.134189
   8 H :    0.123468
   9 H :    0.120667
  10 H :   -0.043483
  11 H :   -0.068652
Sum of atomic charges:   -0.0000000

LOEWDIN ATOMIC CHARGES
----------------------
   0 N :    0.061067
   1 B :   -0.118636
   2 N :    0.061224
   3 B :   -0.137215
   4 H :    0.069508
   5 H :   -0.045247
   6 H :   -0.043268
   7 H :    0.086094
   8 H :    0.083301
   9 H :    0.083040
  10 H :   -0.044552
  11 H :   -0.055317

  Mayer bond orders larger than 0.100000
B(  0-N ,  1-B ) :   1.5590 B(  0-N ,  7-H ) :   0.9433 B(  0-N ,  8-H ) :   0.9582
B(  1-B ,  5-H ) :   0.9700 B(  1-B ,  6-H ) :   0.9712 B(  2-N ,  3-B ) :   1.6311
B(  2-N ,  4-H ) :   0.9351 B(  2-N ,  9-H ) :   0.9576 B(  3-B , 10-H ) :   0.9675
B(  3-B , 11-H ) :   0.9500

Dispersion correction           -0.010005715
FINAL SINGLE POINT ENERGY      -163.864578218737
Dispersion correction             ... done (  0.0 sec)

DIPOLE MOMENT
-------------

Method             : SCF
Type of density    : Electron Density
Multiplicity       :   1
Irrep              :   0
Energy             :  -163.8545725035259579 Eh
Basis              : AO
                                X                 Y                 Z
Electronic contribution:      0.114495779      -0.291580395       0.365335661
Nuclear contribution   :     -0.003600257      -0.028738179       0.146031862
                        -----------------------------------------
Total Dipole Moment    :      0.110895522      -0.320318574       0.511367522
                        -----------------------------------------
Magnitude (a.u.)       :      0.613513283
Magnitude (Debye)      :      1.559426835

Rotational constants in cm-1:             0.554240             0.077068             0.072079
Rotational constants in MHz :         16615.683090          2310.430947          2160.877241

                             ****ORCA TERMINATED NORMALLY****
TOTAL RUN TIME: 0 days 0 hours 0 minutes 10 seconds 179 msec
