                         Program Version 6.1.0  -  RELEASE   -
|  1> ! B3LYP def2-SVP d3 EnGrad
|  2> %pal nprocs 6 end
|  3> *xyz 0 1
|  4> C   -1.00876677388607 -0.69378864609145 0.18444242810383
|  5> C   1.61441367358203 0.5876975434892 -1.05785205332838
|  6> C   -0.7350764665907 0.76781657318524 -0.04414249754254
|  7> C   -1.72010229868713 -1.1841480388036 1.20334194371806
|  8> C   0.75214605878801 1.13024759733298 0.05622485097037
|  9> H   -1.08924823700706 1.05110659401877 -1.05113070320186
| 10> H   -1.30228292864666 1.37045546793082 0.68340425806758
| 11> H   -2.17393578279528 -0.5274691624615 1.95435172043982
| 12> H   1.18864756137327 0.78928126966362 1.01424934420665
| 13> H   -1.88418042867453 -2.2590911104451 1.3228804741437
| 14> H   0.89577365809996 2.22841487525607 0.0529914052527
| 15> H   -0.57142179851629 -1.37809472249272 -0.55140488425819
| 16> H   2.7066639293892 0.83428498283787 -0.96276435447131
| 17> O   1.20960883357125 -0.04921822342018 -1.99853193210047
| 18> *
| 19>
| 20>                          ****END OF INPUT****

CARTESIAN COORDINATES (ANGSTROEM)
---------------------------------
  C     -1.008767   -0.693789    0.184442
  C      1.614414    0.587698   -1.057852
  C     -0.735076    0.767817   -0.044142
  C     -1.720102   -1.184148    1.203342
  C      0.752146    1.130248    0.056225
  H     -1.089248    1.051107   -1.051131
  H     -1.302283    1.370455    0.683404
  H     -2.173936   -0.527469    1.954352
  H      1.188648    0.789281    1.014249
  H     -1.884180   -2.259091    1.322880
  H      0.895774    2.228415    0.052991
  H     -0.571422   -1.378095   -0.551405
  H      2.706664    0.834285   -0.962764
  O      1.209609   -0.049218   -1.998532

 Total Charge           Charge          ....    0
 Multiplicity           Mult            ....    1
 Number of Electrons    NEL             ....   46
 Basis Dimension        Dim             ....  124

ORBITAL ENERGIES
----------------

  NO   OCC          E(Eh)            E(eV)
   0   2.0000     -19.137457      -520.7567
   1   2.0000     -10.278537      -279.6932
   2   2.0000     -10.203941      -277.6633
   3   2.0000     -10.193375      -277.3758
   4   2.0000     -10.185549      -277.1629
   5   2.0000     -10.178728      -276.9773
   6   2.0000      -1.041025       -28.3277
   7   2.0000      -0.802081       -21.8257
   8   2.0000      -0.741751       -20.1841
   9   2.0000      -0.659136       -17.9360
  10   2.0000      -0.564248       -15.3540
  11   2.0000      -0.539117       -14.6701
  12   2.0000      -0.494056       -13.4439
  13   2.0000      -0.468464       -12.7475
  14   2.0000      -0.446169       -12.1409
  15   2.0000      -0.441670       -12.0185
  16   2.0000      -0.404024       -10.9940
  17   2.0000      -0.387715       -10.5503
  18   2.0000      -0.373627       -10.1669
  19   2.0000      -0.360813        -9.8182
  20   2.0000      -0.335160        -9.1202
  21   2.0000      -0.262661        -7.1474
  22   2.0000      -0.255636        -6.9562
  23   0.0000      -0.026267        -0.7148
  24   0.0000       0.012568         0.3420
  25   0.0000       0.063029         1.7151
  26   0.0000       0.087573         2.3830
  27   0.0000       0.100008         2.7213

MULLIKEN ATOMIC CHARGES
-----------------------
   0 C :   -0.089876
   1 C :    0.113411
   2 C :    0.095627
   3 C :   -0.031811
   4 C :   -0.007564
   5 H :    0.022342
   6 H :   -0.005764
   7 H :    0.008936
   8 H :    0.029471
   9 H :    0.020866
  10 H :    0.029487
  11 H :    0.018129
  12 H :   -0.005407
  13 O :   -0.197847
Sum of atomic charges:    0.0000000

LOEWDIN ATOMIC CHARGES
----------------------
   0 C :   -0.024652
   1 C :    0.116566
   2 C :   -0.027624
   3 C :   -0.065083
   4 C :   -0.072091
   5 H :    0.035469
   6 H :    0.026563
   7 H :    0.018049
   8 H :    0.041600
   9 H :    0.023501
  10 H :    0.044315
  11 H :    0.027107
  12 H :   -0.008045
  13 O :   -0.135676

  Mayer bond orders larger than 0.100000
B(  0-C ,  2-C ) :   1.0487 B(  0-C ,  3-C ) :   2.0151 B(  0-C , 11-H ) :   0.9643
B(  1-C ,  4-C ) :   0.9716 B(  1-C , 12-H ) :   0.9322 B(  1-C , 13-O ) :   2.1488
B(  2-C ,  4-C ) :   1.0656 B(  2-C ,  5-H ) :   0.9246 B(  2-C ,  6-H ) :   0.9336
B(  3-C ,  7-H ) :   0.9502 B(  3-C ,  9-H ) :   0.9523 B(  4-C ,  8-H ) :   0.9178
B(  4-C , 10-H ) :   0.9149

Dispersion correction           -0.018106514
FINAL SINGLE POINT ENERGY      -270.189017951948
Dispersion correction             ... done (  0.0 sec)

DIPOLE MOMENT
-------------

Method             : SCF
Type of density    : Electron Density
Multiplicity       :   1
Irrep              :   0
Energy             :  -270.1709114378026015 Eh
Basis              : AO
                                X                 Y                 Z
Electronic contribution:      2.633247034      -0.605439798      -3.837990052
Nuclear contribution   :     -2.425037774       1.205458023       4.550146632
                        -----------------------------------------
Total Dipole Moment    :      0.208209261       0.600018224       0.712156580
                        -----------------------------------------
Magnitude (a.u.)       :      0.954222175
Magnitude (Debye)      :      2.425440017

Rotational constants in cm-1:             0.250060             0.068180             0.059572
Rotational constants in MHz :          7496.604519          2043.980658          1785.918942

                             ****ORCA TERMINATED NORMALLY****
TOTAL RUN TIME: 0 days 0 hours 0 minutes 16 seconds 283 msec
