                         Program Version 6.1.0  -  RELEASE   -
|  1> ! B3LYP def2-SVP d3 EnGrad
|  2> %pal nprocs 6 end
|  3> *xyz 0 1
|  4> C   -0.21454513914796 2.0904120671122 -1.96063193126184
|  5> C   -0.34304134621046 0.79159745437569 -1.12515895150521
|  6> O   -1.18891409162738 -0.0334880773695 -1.50354704739449
|  7> F   -0.13124504055533 1.8103900581204 -3.26547089712045
|  8> F   0.86128334693181 2.80587333550485 -1.62240724851493
|  9> F   -1.30060167230681 2.85288259252792 -1.76139406824224
| 10> O   0.37130022408001 0.67526679779873 -0.10975711864756
| 11> C   -0.65920406483199 -1.26853715455835 0.32338299847799
| 12> C   -1.6212398637552 -0.76991001670635 1.32299442635749
| 13> N   2.39889398659304 -1.06966831719197 1.19649635460964
| 14> H   -1.04213414577583 -1.92847894061071 -0.45400391401971
| 15> H   0.38696718205101 -1.41227048768164 0.62611176273024
| 16> H   -1.89541560154458 -1.65255907076315 1.93948739986582
| 17> H   -1.18325626901203 -0.01291562347084 1.98554170135286
| 18> H   -2.54692715768657 -0.39635017038016 0.86424586282407
| 19> H   2.78024030010381 -0.86740367821853 2.12229619196903
| 20> H   3.17297794856282 -1.44595987354039 0.6458133521222
| 21> H   2.15486140413162 -0.16888089494819 0.77600112639708
| 22> *
| 23>
| 24>                          ****END OF INPUT****

CARTESIAN COORDINATES (ANGSTROEM)
---------------------------------
  C     -0.214545    2.090412   -1.960632
  C     -0.343041    0.791597   -1.125159
  O     -1.188914   -0.033488   -1.503547
  F     -0.131245    1.810390   -3.265471
  F      0.861283    2.805873   -1.622407
  F     -1.300602    2.852883   -1.761394
  O      0.371300    0.675267   -0.109757
  C     -0.659204   -1.268537    0.323383
  C     -1.621240   -0.769910    1.322994
  N      2.398894   -1.069668    1.196496
  H     -1.042134   -1.928479   -0.454004
  H      0.386967   -1.412270    0.626112
  H     -1.895416   -1.652559    1.939487
  H     -1.183256   -0.012916    1.985542
  H     -2.546927   -0.396350    0.864246
  H      2.780240   -0.867404    2.122296
  H      3.172978   -1.445960    0.645813
  H      2.154861   -0.168881    0.776001

 Total Charge           Charge          ....    0
 Multiplicity           Mult            ....    1
 Number of Electrons    NEL             ....   82
 Basis Dimension        Dim             ....  180

ORBITAL ENERGIES
----------------

  NO   OCC          E(Eh)            E(eV)
   0   2.0000     -24.709492      -672.3795
   1   2.0000     -24.709031      -672.3669
   2   2.0000     -24.708697      -672.3578
   3   2.0000     -19.131003      -520.5811
   4   2.0000     -19.126513      -520.4589
   5   2.0000     -14.310496      -389.4084
   6   2.0000     -10.424332      -283.6605
   7   2.0000     -10.304801      -280.4079
   8   2.0000     -10.282072      -279.7894
   9   2.0000     -10.214092      -277.9396
  10   2.0000      -1.290916       -35.1276
  11   2.0000      -1.198120       -32.6025
  12   2.0000      -1.198082       -32.6015
  13   2.0000      -1.070600       -29.1325
  14   2.0000      -0.973857       -26.5000
  15   2.0000      -0.840978       -22.8842
  16   2.0000      -0.790699       -21.5160
  17   2.0000      -0.715434       -19.4680
  18   2.0000      -0.633240       -17.2313
  19   2.0000      -0.613675       -16.6990
  20   2.0000      -0.585345       -15.9280
  21   2.0000      -0.583287       -15.8721
  22   2.0000      -0.507320       -13.8049
  23   2.0000      -0.493448       -13.4274
  24   2.0000      -0.465802       -12.6751
  25   2.0000      -0.460900       -12.5417
  26   2.0000      -0.459547       -12.5049
  27   2.0000      -0.456947       -12.4342
  28   2.0000      -0.449800       -12.2397
  29   2.0000      -0.440308       -11.9814
  30   2.0000      -0.432627       -11.7724
  31   2.0000      -0.427837       -11.6420
  32   2.0000      -0.418715       -11.3938
  33   2.0000      -0.418226       -11.3805
  34   2.0000      -0.406418       -11.0592
  35   2.0000      -0.399723       -10.8770
  36   2.0000      -0.386114       -10.5067
  37   2.0000      -0.299692        -8.1550
  38   2.0000      -0.292273        -7.9531
  39   2.0000      -0.274076        -7.4580
  40   2.0000      -0.266208        -7.2439
  41   0.0000      -0.095553        -2.6001
  42   0.0000       0.006697         0.1822
  43   0.0000       0.050138         1.3643
  44   0.0000       0.067789         1.8446
  45   0.0000       0.099471         2.7067

MULLIKEN ATOMIC CHARGES
-----------------------
   0 C :    0.540158
   1 C :    0.100690
   2 O :   -0.308208
   3 F :   -0.162539
   4 F :   -0.159187
   5 F :   -0.172483
   6 O :   -0.317925
   7 C :    0.096567
   8 C :   -0.006116
   9 N :   -0.223104
  10 H :    0.084512
  11 H :    0.069312
  12 H :    0.053964
  13 H :    0.055843
  14 H :    0.059791
  15 H :    0.089439
  16 H :    0.091043
  17 H :    0.108241
Sum of atomic charges:   -0.0000000

LOEWDIN ATOMIC CHARGES
----------------------
   0 C :    0.141178
   1 C :   -0.027056
   2 O :   -0.196620
   3 F :   -0.053208
   4 F :   -0.052940
   5 F :   -0.058926
   6 O :   -0.201189
   7 C :    0.244910
   8 C :   -0.056182
   9 N :   -0.131470
  10 H :    0.038396
  11 H :    0.025126
  12 H :    0.063158
  13 H :    0.043740
  14 H :    0.048119
  15 H :    0.058574
  16 H :    0.059089
  17 H :    0.055302

  Mayer bond orders larger than 0.100000
B(  0-C ,  1-C ) :   0.8589 B(  0-C ,  3-F ) :   1.1530 B(  0-C ,  4-F ) :   1.1610
B(  0-C ,  5-F ) :   1.1365 B(  1-C ,  2-O ) :   1.6964 B(  1-C ,  6-O ) :   1.6248
B(  2-O ,  6-O ) :   0.1555 B(  2-O ,  7-C ) :   0.3015 B(  6-O ,  7-C ) :   0.3162
B(  7-C ,  8-C ) :   1.1803 B(  7-C , 10-H ) :   0.9488 B(  7-C , 11-H ) :   0.8862
B(  8-C , 12-H ) :   0.9141 B(  8-C , 13-H ) :   0.9618 B(  8-C , 14-H ) :   0.9544
B(  9-N , 11-H ) :   0.2046 B(  9-N , 15-H ) :   0.9907 B(  9-N , 16-H ) :   0.9910
B(  9-N , 17-H ) :   0.9602

Dispersion correction           -0.022088353
FINAL SINGLE POINT ENERGY      -661.120240306550
Dispersion correction             ... done (  0.0 sec)

DIPOLE MOMENT
-------------

Method             : SCF
Type of density    : Electron Density
Multiplicity       :   1
Irrep              :   0
Energy             :  -661.0981519536726410 Eh
Basis              : AO
                                X                 Y                 Z
Electronic contribution:     -2.590509920      17.355187425     -17.091784483
Nuclear contribution   :      2.919307554     -18.484417080      18.434707100
                        -----------------------------------------
Total Dipole Moment    :      0.328797634      -1.129229655       1.342922618
                        -----------------------------------------
Magnitude (a.u.)       :      1.785135472
Magnitude (Debye)      :      4.537453773

Rotational constants in cm-1:             0.057112             0.023880             0.019881
Rotational constants in MHz :          1712.159727           715.897795           596.013109

                             ****ORCA TERMINATED NORMALLY****
TOTAL RUN TIME: 0 days 0 hours 0 minutes 25 seconds 917 msec
