                         Program Version 6.1.0  -  RELEASE   -
|  1> ! B3LYP def2-SVP d3 EnGrad
|  2> %pal nprocs 6 end
|  3> *xyz 0 1
|  4> C   3.41410323058596 -0.03355127741755 0.13870972272142
|  5> C   1.91194247160794 -0.00048699313277 0.08397637769584
|  6> H   3.86678089231659 0.51070026080397 -0.6994213919907
|  7> H   3.74196425578304 -1.08425076126892 0.12164672917592
|  8> H   3.74243017903976 0.40175538195419 1.09418104074609
|  9> O   1.48596085848024 0.62732940885401 -1.03011053171644
| 10> O   0.06198280710579 0.66472265280481 -1.12261884575339
| 11> H   -0.2271648573605 0.17263812219285 -0.31108398271853
| 12> O   1.14836248060344 -0.46642351251815 0.89661697753285
| 13> C   -2.16750086777116 0.06083770564972 0.98956293314091
| 14> C   -2.14770491697207 -1.06433837847555 0.25522301714537
| 15> C   -2.79459638320733 -1.29969532099584 -1.07815687340388
| 16> H   -1.57354212658582 -1.90789837530333 0.65687943238608
| 17> H   -3.42851355230161 -0.46164339513572 -1.4010944880633
| 18> H   -3.41583556779309 -2.21165597460791 -1.05933094875829
| 19> H   -2.02558514577507 -1.4537818268942 -1.85561378014588
| 20> C   -2.83971144897479 1.35985410822379 0.65541213382257
| 21> H   -1.60591405172918 0.04847273127105 1.9310797666017
| 22> H   -3.45392210169034 1.3027595460032 -0.2544421780966
| 23> H   -2.08644673807659 2.15243807401192 0.49940996649396
| 24> H   -3.48611941728509 1.6936908239804 1.48514692318428
| 25> *
| 26>
| 27>                          ****END OF INPUT****

CARTESIAN COORDINATES (ANGSTROEM)
---------------------------------
  C      3.414103   -0.033551    0.138710
  C      1.911942   -0.000487    0.083976
  H      3.866781    0.510700   -0.699421
  H      3.741964   -1.084251    0.121647
  H      3.742430    0.401755    1.094181
  O      1.485961    0.627329   -1.030111
  O      0.061983    0.664723   -1.122619
  H     -0.227165    0.172638   -0.311084
  O      1.148362   -0.466424    0.896617
  C     -2.167501    0.060838    0.989563
  C     -2.147705   -1.064338    0.255223
  C     -2.794596   -1.299695   -1.078157
  H     -1.573542   -1.907898    0.656879
  H     -3.428514   -0.461643   -1.401094
  H     -3.415836   -2.211656   -1.059331
  H     -2.025585   -1.453782   -1.855614
  C     -2.839711    1.359854    0.655412
  H     -1.605914    0.048473    1.931080
  H     -3.453922    1.302760   -0.254442
  H     -2.086447    2.152438    0.499410
  H     -3.486119    1.693691    1.485147

 Total Charge           Charge          ....    0
 Multiplicity           Mult            ....    1
 Number of Electrons    NEL             ....   72
 Basis Dimension        Dim             ....  186

ORBITAL ENERGIES
----------------

  NO   OCC          E(Eh)            E(eV)
   0   2.0000     -19.229010      -523.2480
   1   2.0000     -19.188141      -522.1359
   2   2.0000     -19.137819      -520.7665
   3   2.0000     -10.326922      -281.0098
   4   2.0000     -10.213849      -277.9330
   5   2.0000     -10.181771      -277.0601
   6   2.0000     -10.180936      -277.0373
   7   2.0000     -10.179252      -276.9915
   8   2.0000     -10.179184      -276.9897
   9   2.0000      -1.159294       -31.5460
  10   2.0000      -1.040865       -28.3234
  11   2.0000      -0.920458       -25.0469
  12   2.0000      -0.786242       -21.3947
  13   2.0000      -0.750249       -20.4153
  14   2.0000      -0.710901       -19.3446
  15   2.0000      -0.644162       -17.5285
  16   2.0000      -0.619799       -16.8656
  17   2.0000      -0.515652       -14.0316
  18   2.0000      -0.514978       -14.0133
  19   2.0000      -0.494252       -13.4493
  20   2.0000      -0.492603       -13.4044
  21   2.0000      -0.472842       -12.8667
  22   2.0000      -0.429533       -11.6882
  23   2.0000      -0.423862       -11.5339
  24   2.0000      -0.415699       -11.3117
  25   2.0000      -0.411402       -11.1948
  26   2.0000      -0.406319       -11.0565
  27   2.0000      -0.396278       -10.7833
  28   2.0000      -0.387237       -10.5372
  29   2.0000      -0.379254       -10.3200
  30   2.0000      -0.362079        -9.8527
  31   2.0000      -0.358189        -9.7468
  32   2.0000      -0.329472        -8.9654
  33   2.0000      -0.302161        -8.2222
  34   2.0000      -0.275282        -7.4908
  35   2.0000      -0.243237        -6.6188
  36   0.0000      -0.003839        -0.1045
  37   0.0000       0.019291         0.5249
  38   0.0000       0.021826         0.5939
  39   0.0000       0.062505         1.7008
  40   0.0000       0.074475         2.0266

MULLIKEN ATOMIC CHARGES
-----------------------
   0 C :    0.039287
   1 C :    0.127741
   2 H :    0.044416
   3 H :    0.057723
   4 H :    0.055980
   5 O :   -0.146868
   6 O :   -0.152233
   7 H :    0.213495
   8 O :   -0.251450
   9 C :   -0.125433
  10 C :   -0.127468
  11 C :    0.078112
  12 H :    0.003761
  13 H :    0.007318
  14 H :    0.017652
  15 H :    0.024804
  16 C :    0.077762
  17 H :    0.006072
  18 H :    0.007164
  19 H :    0.024157
  20 H :    0.018008
Sum of atomic charges:    0.0000000

LOEWDIN ATOMIC CHARGES
----------------------
   0 C :   -0.065947
   1 C :    0.066543
   2 H :    0.042440
   3 H :    0.055028
   4 H :    0.053820
   5 O :   -0.007104
   6 O :   -0.036882
   7 H :    0.054431
   8 O :   -0.181908
   9 C :   -0.048793
  10 C :   -0.048840
  11 C :   -0.058803
  12 H :    0.025985
  13 H :    0.025327
  14 H :    0.031822
  15 H :    0.033996
  16 C :   -0.058776
  17 H :    0.026657
  18 H :    0.025259
  19 H :    0.033771
  20 H :    0.031973

  Mayer bond orders larger than 0.100000
B(  0-C ,  1-C ) :   1.0416 B(  0-C ,  2-H ) :   0.9532 B(  0-C ,  3-H ) :   0.9471
B(  0-C ,  4-H ) :   0.9483 B(  1-C ,  5-O ) :   1.1567 B(  1-C ,  8-O ) :   2.0103
B(  5-O ,  6-O ) :   0.9254 B(  6-O ,  7-H ) :   0.8843 B(  9-C , 10-C ) :   1.9164
B(  9-C , 16-C ) :   1.0861 B(  9-C , 17-H ) :   0.9507 B( 10-C , 11-C ) :   1.0850
B( 10-C , 12-H ) :   0.9514 B( 11-C , 13-H ) :   0.9591 B( 11-C , 14-H ) :   0.9511
B( 11-C , 15-H ) :   0.9469 B( 16-C , 18-H ) :   0.9590 B( 16-C , 19-H ) :   0.9469
B( 16-C , 20-H ) :   0.9510

Dispersion correction           -0.026506697
FINAL SINGLE POINT ENERGY      -460.860517295711
Dispersion correction             ... done (  0.0 sec)

DIPOLE MOMENT
-------------

Method             : SCF
Type of density    : Electron Density
Multiplicity       :   1
Irrep              :   0
Energy             :  -460.8340105986438289 Eh
Basis              : AO
                                X                 Y                 Z
Electronic contribution:      7.984948265       0.713102576      -0.645331248
Nuclear contribution   :     -7.378839145      -0.826407521       0.803631740
                        -----------------------------------------
Total Dipole Moment    :      0.606109120      -0.113304945       0.158300491
                        -----------------------------------------
Magnitude (a.u.)       :      0.636604525
Magnitude (Debye)      :      1.618120109

Rotational constants in cm-1:             0.088901             0.022908             0.022612
Rotational constants in MHz :          2665.179115           686.756520           677.901654

                             ****ORCA TERMINATED NORMALLY****
TOTAL RUN TIME: 0 days 0 hours 0 minutes 28 seconds 727 msec
