                         Program Version 6.1.0  -  RELEASE   -
|  1> ! B3LYP def2-SVP d3 EnGrad
|  2> %pal nprocs 6 end
|  3> *xyz 0 1
|  4> C   1.87159492420157 -0.12067198707241 0.0353296125616
|  5> C   0.53494296926188 0.50004365452862 0.29536104585478
|  6> N   -0.44089834291115 -0.20068617347975 -0.21218799145797
|  7> C   -1.84982173311459 0.15559716886302 -0.12028999291363
|  8> H   -0.26417958881355 -1.08281163940451 -0.72869500570041
|  9> H   2.3781464784525 -0.30297174043874 0.99896035741447
| 10> H   1.85986675177952 -1.07396063136535 -0.54664152337667
| 11> H   2.51098770720236 0.60698176843818 -0.49418965541237
| 12> H   -2.28465365702635 0.28798794453463 -1.12530781201959
| 13> H   -2.41848934424128 -0.6316595961167 0.40280475863255
| 14> H   -1.9232761647909 1.09637023151301 0.43945820641721
| 15> *
| 16>
| 17>                          ****END OF INPUT****

CARTESIAN COORDINATES (ANGSTROEM)
---------------------------------
  C      1.871595   -0.120672    0.035330
  C      0.534943    0.500044    0.295361
  N     -0.440898   -0.200686   -0.212188
  C     -1.849822    0.155597   -0.120290
  H     -0.264180   -1.082812   -0.728695
  H      2.378146   -0.302972    0.998960
  H      1.859867   -1.073961   -0.546642
  H      2.510988    0.606982   -0.494190
  H     -2.284654    0.287988   -1.125308
  H     -2.418489   -0.631660    0.402805
  H     -1.923276    1.096370    0.439458

 Total Charge           Charge          ....    0
 Multiplicity           Mult            ....    1
 Number of Electrons    NEL             ....   32
 Basis Dimension        Dim             ....   91

ORBITAL ENERGIES
----------------

  NO   OCC          E(Eh)            E(eV)
   0   2.0000     -14.371341      -391.0641
   1   2.0000     -10.219607      -278.0897
   2   2.0000     -10.180828      -277.0344
   3   2.0000     -10.175263      -276.8830
   4   2.0000      -0.936693       -25.4887
   5   2.0000      -0.741173       -20.1683
   6   2.0000      -0.666937       -18.1483
   7   2.0000      -0.586039       -15.9469
   8   2.0000      -0.494057       -13.4440
   9   2.0000      -0.448856       -12.2140
  10   2.0000      -0.426836       -11.6148
  11   2.0000      -0.400565       -10.8999
  12   2.0000      -0.392645       -10.6844
  13   2.0000      -0.367424        -9.9981
  14   2.0000      -0.302632        -8.2350
  15   2.0000      -0.185943        -5.0598
  16   0.0000       0.009792         0.2664
  17   0.0000       0.054711         1.4888
  18   0.0000       0.079170         2.1543
  19   0.0000       0.103270         2.8101
  20   0.0000       0.127096         3.4585

MULLIKEN ATOMIC CHARGES
-----------------------
   0 C :    0.004073
   1 C :   -0.204916
   2 N :   -0.122201
   3 C :    0.131559
   4 H :    0.074999
   5 H :    0.036323
   6 H :   -0.034773
   7 H :    0.036503
   8 H :    0.020848
   9 H :    0.020945
  10 H :    0.036640
Sum of atomic charges:    0.0000000

LOEWDIN ATOMIC CHARGES
----------------------
   0 C :   -0.103555
   1 C :   -0.174294
   2 N :    0.061941
   3 C :    0.024810
   4 H :    0.038850
   5 H :    0.042595
   6 H :   -0.009827
   7 H :    0.042555
   8 H :    0.021490
   9 H :    0.021493
  10 H :    0.033943

  Mayer bond orders larger than 0.100000
B(  0-C ,  1-C ) :   0.9712 B(  0-C ,  5-H ) :   0.9500 B(  0-C ,  6-H ) :   0.9263
B(  0-C ,  7-H ) :   0.9503 B(  1-C ,  2-N ) :   1.5568 B(  1-C ,  4-H ) :   0.1011
B(  2-N ,  3-C ) :   0.9877 B(  2-N ,  4-H ) :   0.8891 B(  3-C ,  8-H ) :   0.9699
B(  3-C ,  9-H ) :   0.9699 B(  3-C , 10-H ) :   0.9624

Dispersion correction           -0.010587834
FINAL SINGLE POINT ENERGY      -172.978357782164
Dispersion correction             ... done (  0.1 sec)

DIPOLE MOMENT
-------------

Method             : SCF
Type of density    : Electron Density
Multiplicity       :   1
Irrep              :   0
Energy             :  -172.9677699484005302 Eh
Basis              : AO
                                X                 Y                 Z
Electronic contribution:     -0.288047379       0.538477078       0.303338016
Nuclear contribution   :     -0.177672112      -1.321601048      -0.816155294
                        -----------------------------------------
Total Dipole Moment    :     -0.465719491      -0.783123970      -0.512817278
                        -----------------------------------------
Magnitude (a.u.)       :      1.045542614
Magnitude (Debye)      :      2.657558125

Rotational constants in cm-1:             1.264293             0.136347             0.129032
Rotational constants in MHz :         37902.545092          4087.582679          3868.275885

                             ****ORCA TERMINATED NORMALLY****
TOTAL RUN TIME: 0 days 0 hours 0 minutes 10 seconds 365 msec
