                         Program Version 6.1.0  -  RELEASE   -
|  1> ! B3LYP def2-SVP d3 EnGrad
|  2> %pal nprocs 6 end
|  3> *xyz 0 1
|  4> H   0.05024655524248 1.95169862204704 -2.18274357793276
|  5> C   -0.15077081479302 2.05352047948414 -1.11331590038759
|  6> C   -0.10832407460279 0.99563732812832 -0.30480162263834
|  7> H   -0.38880711964568 3.04063583872798 -0.7118366865003
|  8> H   -0.30424585542003 1.0568048505392 0.77418081666066
|  9> O   0.18795711101813 -0.26888630147139 -0.76631078752224
| 10> H   0.70620077797153 -1.00905588226714 0.1039747453079
| 11> O   -0.14117200320781 -1.52881026342938 2.1837173713267
| 12> C   0.13891746276055 -2.00040869034966 1.10090705522215
| 13> H   0.34499920401131 -3.10720707173449 1.00160149832935
| 14> H   -0.3350012433347 -1.18392890967463 -0.08537291186553
| 15> *
| 16>
| 17>                          ****END OF INPUT****

CARTESIAN COORDINATES (ANGSTROEM)
---------------------------------
  H      0.050247    1.951699   -2.182744
  C     -0.150771    2.053520   -1.113316
  C     -0.108324    0.995637   -0.304802
  H     -0.388807    3.040636   -0.711837
  H     -0.304246    1.056805    0.774181
  O      0.187957   -0.268886   -0.766311
  H      0.706201   -1.009056    0.103975
  O     -0.141172   -1.528810    2.183717
  C      0.138917   -2.000409    1.100907
  H      0.344999   -3.107207    1.001601
  H     -0.335001   -1.183929   -0.085373

 Total Charge           Charge          ....    0
 Multiplicity           Mult            ....    1
 Number of Electrons    NEL             ....   40
 Basis Dimension        Dim             ....  100

ORBITAL ENERGIES
----------------

  NO   OCC          E(Eh)            E(eV)
   0   2.0000     -19.174634      -521.7683
   1   2.0000     -19.150505      -521.1117
   2   2.0000     -10.264989      -279.3246
   3   2.0000     -10.251350      -278.9534
   4   2.0000     -10.190458      -277.2965
   5   2.0000      -1.050666       -28.5901
   6   2.0000      -1.036261       -28.1981
   7   2.0000      -0.759330       -20.6624
   8   2.0000      -0.643659       -17.5149
   9   2.0000      -0.572565       -15.5803
  10   2.0000      -0.551345       -15.0029
  11   2.0000      -0.459383       -12.5004
  12   2.0000      -0.458200       -12.4683
  13   2.0000      -0.440658       -11.9909
  14   2.0000      -0.437140       -11.8952
  15   2.0000      -0.395758       -10.7691
  16   2.0000      -0.387854       -10.5541
  17   2.0000      -0.350044        -9.5252
  18   2.0000      -0.264145        -7.1877
  19   2.0000      -0.221638        -6.0311
  20   0.0000      -0.081602        -2.2205
  21   0.0000       0.012226         0.3327
  22   0.0000       0.070740         1.9249
  23   0.0000       0.094727         2.5777
  24   0.0000       0.104477         2.8430

MULLIKEN ATOMIC CHARGES
-----------------------
   0 H :    0.033365
   1 C :   -0.021264
   2 C :    0.078533
   3 H :    0.031381
   4 H :    0.025414
   5 O :   -0.293173
   6 H :    0.214410
   7 O :   -0.206865
   8 C :   -0.089912
   9 H :    0.013338
  10 H :    0.214774
Sum of atomic charges:   -0.0000000

LOEWDIN ATOMIC CHARGES
----------------------
   0 H :    0.032496
   1 C :   -0.080007
   2 C :    0.042246
   3 H :    0.033664
   4 H :    0.019918
   5 O :   -0.112557
   6 H :    0.112587
   7 O :   -0.130493
   8 C :   -0.005133
   9 H :   -0.025764
  10 H :    0.113044

  Mayer bond orders larger than 0.100000
B(  0-H ,  1-C ) :   0.9517 B(  1-C ,  2-C ) :   1.9629 B(  1-C ,  3-H ) :   0.9447
B(  2-C ,  4-H ) :   0.9532 B(  2-C ,  5-O ) :   1.0678 B(  5-O ,  6-H ) :   0.4981
B(  5-O , 10-H ) :   0.4983 B(  6-H ,  8-C ) :   0.3553 B(  7-O ,  8-C ) :   2.0358
B(  8-C ,  9-H ) :   0.8672 B(  8-C , 10-H ) :   0.3550

Dispersion correction           -0.010812502
FINAL SINGLE POINT ENERGY      -267.855339563563
Dispersion correction             ... done (  0.1 sec)

DIPOLE MOMENT
-------------

Method             : SCF
Type of density    : Electron Density
Multiplicity       :   1
Irrep              :   0
Energy             :  -267.8445270619984626 Eh
Basis              : AO
                                X                 Y                 Z
Electronic contribution:     -0.044852734      -1.756868280       1.892840743
Nuclear contribution   :      0.116979582       1.853165489      -2.367693196
                        -----------------------------------------
Total Dipole Moment    :      0.072126848       0.096297209      -0.474852452
                        -----------------------------------------
Magnitude (a.u.)       :      0.489857414
Magnitude (Debye)      :      1.245118596

Rotational constants in cm-1:             0.523788             0.064277             0.057478
Rotational constants in MHz :         15702.769734          1926.976773          1723.154840

                             ****ORCA TERMINATED NORMALLY****
TOTAL RUN TIME: 0 days 0 hours 0 minutes 10 seconds 766 msec
