                         Program Version 6.1.0  -  RELEASE   -
|  1> ! B3LYP def2-SVP d3 EnGrad
|  2> %pal nprocs 6 end
|  3> *xyz 0 1
|  4> C   -0.479764 0.988108 0.766651
|  5> O   -0.235587 2.114475 1.354431
|  6> Mg   1.688925 2.175911 1.154901
|  7> Br   3.451774 3.577034 1.904649
|  8> C   1.574276 0.410713 -0.134734
|  9> C   2.088865 -0.850444 0.217951
| 10> C   1.825365 0.8712 -1.446228
| 11> C   2.84158 -1.610661 -0.683944
| 12> H   1.887611 -1.26237 1.212542
| 13> C   2.588349 0.129244 -2.351918
| 14> H   1.396286 1.822709 -1.787686
| 15> C   3.092027 -1.119617 -1.970149
| 16> H   3.227912 -2.590164 -0.388658
| 17> H   2.77726 0.513726 -3.357979
| 18> H   3.67356 -1.714439 -2.67975
| 19> C   -1.223137 1.048985 -0.53469
| 20> C   -1.196272 0.027524 -1.501587
| 21> C   -1.992491 2.196852 -0.779171
| 22> C   -1.937185 0.147928 -2.674752
| 23> H   -0.555537 -0.842193 -1.353021
| 24> C   -2.740235 2.313036 -1.954435
| 25> H   -2.000556 2.988148 -0.02804
| 26> C   -2.716575 1.289418 -2.903511
| 27> H   -1.895891 -0.646486 -3.424267
| 28> H   -3.341632 3.208856 -2.127799
| 29> H   -3.29557 1.380937 -3.825914
| 30> C   -0.62471 -0.224447 1.642066
| 31> C   -1.426113 -1.326062 1.300262
| 32> C   0.030547 -0.238887 2.887028
| 33> C   -1.535739 -2.422527 2.159214
| 34> H   -1.987434 -1.324907 0.367678
| 35> C   -0.073953 -1.332575 3.743138
| 36> H   0.623331 0.624654 3.19742
| 37> C   -0.854075 -2.436156 3.377741
| 38> H   -2.166473 -3.267957 1.873724
| 39> H   0.449562 -1.323563 4.701895
| 40> H   -0.938303 -3.296002 4.046942
| 41> *
| 42>
| 43>                          ****END OF INPUT****

CARTESIAN COORDINATES (ANGSTROEM)
---------------------------------
  C     -0.479764    0.988108    0.766651
  O     -0.235587    2.114475    1.354431
  Mg     1.688925    2.175911    1.154901
  Br     3.451774    3.577034    1.904649
  C      1.574276    0.410713   -0.134734
  C      2.088865   -0.850444    0.217951
  C      1.825365    0.871200   -1.446228
  C      2.841580   -1.610661   -0.683944
  H      1.887611   -1.262370    1.212542
  C      2.588349    0.129244   -2.351918
  H      1.396286    1.822709   -1.787686
  C      3.092027   -1.119617   -1.970149
  H      3.227912   -2.590164   -0.388658
  H      2.777260    0.513726   -3.357979
  H      3.673560   -1.714439   -2.679750
  C     -1.223137    1.048985   -0.534690
  C     -1.196272    0.027524   -1.501587
  C     -1.992491    2.196852   -0.779171
  C     -1.937185    0.147928   -2.674752
  H     -0.555537   -0.842193   -1.353021
  C     -2.740235    2.313036   -1.954435
  H     -2.000556    2.988148   -0.028040
  C     -2.716575    1.289418   -2.903511
  H     -1.895891   -0.646486   -3.424267
  H     -3.341632    3.208856   -2.127799
  H     -3.295570    1.380937   -3.825914
  C     -0.624710   -0.224447    1.642066
  C     -1.426113   -1.326062    1.300262
  C      0.030547   -0.238887    2.887028
  C     -1.535739   -2.422527    2.159214
  H     -1.987434   -1.324907    0.367678
  C     -0.073953   -1.332575    3.743138
  H      0.623331    0.624654    3.197420
  C     -0.854075   -2.436156    3.377741
  H     -2.166473   -3.267957    1.873724
  H      0.449562   -1.323563    4.701895
  H     -0.938303   -3.296002    4.046942

 Total Charge           Charge          ....    0
 Multiplicity           Mult            ....    1
 Number of Electrons    NEL             ....  184
 Basis Dimension        Dim             ....  405

ORBITAL ENERGIES
----------------

  NO   OCC          E(Eh)            E(eV)
   0   2.0000    -482.727641    -13135.6869
   1   2.0000     -62.410699     -1698.2814
   2   2.0000     -56.241444     -1530.4075
   3   2.0000     -56.240797     -1530.3899
   4   2.0000     -56.240748     -1530.3886
   5   2.0000     -46.844726     -1274.7098
   6   2.0000     -19.124918      -520.4155
   7   2.0000     -10.306890      -280.4647
   8   2.0000     -10.213622      -277.9268
   9   2.0000     -10.209272      -277.8084
  10   2.0000     -10.208529      -277.7882
  11   2.0000     -10.207798      -277.7683
  12   2.0000     -10.207439      -277.7585
  13   2.0000     -10.207118      -277.7498
  14   2.0000     -10.206281      -277.7270
  15   2.0000     -10.203878      -277.6616
  16   2.0000     -10.203458      -277.6502
  17   2.0000     -10.202017      -277.6110
  18   2.0000     -10.201113      -277.5864
  19   2.0000     -10.200629      -277.5732
  20   2.0000     -10.199528      -277.5433
  21   2.0000     -10.198595      -277.5179
  22   2.0000     -10.195895      -277.4444
  23   2.0000     -10.195575      -277.4357
  24   2.0000     -10.194867      -277.4164
  25   2.0000     -10.173196      -276.8267
  26   2.0000      -8.628078      -234.7819
  27   2.0000      -6.455821      -175.6718
  28   2.0000      -6.451738      -175.5607
  29   2.0000      -6.451420      -175.5521
  30   2.0000      -3.128639       -85.1346
  31   2.0000      -2.571167       -69.9650
  32   2.0000      -2.569959       -69.9321
  33   2.0000      -2.569797       -69.9277
  34   2.0000      -2.566476       -69.8374
  35   2.0000      -2.566451       -69.8367
  36   2.0000      -1.877370       -51.0858
  37   2.0000      -1.874215       -51.0000
  38   2.0000      -1.873481       -50.9800
  39   2.0000      -1.026086       -27.9212
  40   2.0000      -0.867452       -23.6046
  41   2.0000      -0.859796       -23.3962
  42   2.0000      -0.845827       -23.0161
  43   2.0000      -0.780295       -21.2329
  44   2.0000      -0.757773       -20.6201
  45   2.0000      -0.752028       -20.4637
  46   2.0000      -0.748534       -20.3686
  47   2.0000      -0.739918       -20.1342
  48   2.0000      -0.732047       -19.9200
  49   2.0000      -0.704327       -19.1657
  50   2.0000      -0.662628       -18.0310
  51   2.0000      -0.621917       -16.9232
  52   2.0000      -0.615693       -16.7539
  53   2.0000      -0.606294       -16.4981
  54   2.0000      -0.598153       -16.2766
  55   2.0000      -0.589261       -16.0346
  56   2.0000      -0.567588       -15.4449
  57   2.0000      -0.538320       -14.6484
  58   2.0000      -0.517412       -14.0795
  59   2.0000      -0.514702       -14.0058
  60   2.0000      -0.480854       -13.0847
  61   2.0000      -0.478520       -13.0212
  62   2.0000      -0.466274       -12.6880
  63   2.0000      -0.457458       -12.4481
  64   2.0000      -0.451498       -12.2859
  65   2.0000      -0.449252       -12.2248
  66   2.0000      -0.446375       -12.1465
  67   2.0000      -0.440264       -11.9802
  68   2.0000      -0.437854       -11.9146
  69   2.0000      -0.434414       -11.8210
  70   2.0000      -0.425428       -11.5765
  71   2.0000      -0.424057       -11.5392
  72   2.0000      -0.384843       -10.4721
  73   2.0000      -0.381797       -10.3892
  74   2.0000      -0.379027       -10.3139
  75   2.0000      -0.377744       -10.2789
  76   2.0000      -0.370270       -10.0756
  77   2.0000      -0.367157        -9.9908
  78   2.0000      -0.357895        -9.7388
  79   2.0000      -0.353844        -9.6286
  80   2.0000      -0.345109        -9.3909
  81   2.0000      -0.301251        -8.1975
  82   2.0000      -0.290456        -7.9037
  83   2.0000      -0.279003        -7.5921
  84   2.0000      -0.274855        -7.4792
  85   2.0000      -0.271094        -7.3768
  86   2.0000      -0.266716        -7.2577
  87   2.0000      -0.263736        -7.1766
  88   2.0000      -0.257126        -6.9968
  89   2.0000      -0.253945        -6.9102
  90   2.0000      -0.250835        -6.8256
  91   2.0000      -0.229719        -6.2510
  92   0.0000      -0.092011        -2.5038
  93   0.0000      -0.031939        -0.8691
  94   0.0000      -0.029218        -0.7951
  95   0.0000      -0.020599        -0.5605
  96   0.0000      -0.015239        -0.4147

MULLIKEN ATOMIC CHARGES
-----------------------
   0 C :    0.291639
   1 O :   -0.459044
   2 Mg:    0.536088
   3 Br:   -0.312257
   4 C :   -0.422291
   5 C :    0.041137
   6 C :    0.092029
   7 C :    0.032075
   8 H :   -0.003957
   9 C :    0.027702
  10 H :    0.011189
  11 C :    0.018658
  12 H :   -0.019000
  13 H :   -0.017809
  14 H :   -0.010607
  15 C :   -0.029379
  16 C :    0.039363
  17 C :    0.016280
  18 C :    0.001903
  19 H :    0.002833
  20 C :    0.021554
  21 H :    0.004521
  22 C :    0.035483
  23 H :   -0.013046
  24 H :   -0.010878
  25 H :   -0.010143
  26 C :    0.105503
  27 C :   -0.009353
  28 C :   -0.030565
  29 C :    0.023565
  30 H :   -0.007717
  31 C :    0.026650
  32 H :    0.022338
  33 C :    0.032670
  34 H :   -0.011643
  35 H :   -0.008554
  36 H :   -0.006934
Sum of atomic charges:    0.0000000

LOEWDIN ATOMIC CHARGES
----------------------
   0 C :    0.203154
   1 O :   -0.178222
   2 Mg:   -0.265284
   3 Br:    0.073751
   4 C :   -0.144079
   5 C :    0.007541
   6 C :    0.020649
   7 C :   -0.025110
   8 H :    0.029632
   9 C :   -0.023015
  10 H :    0.041933
  11 C :   -0.011390
  12 H :    0.026746
  13 H :    0.027764
  14 H :    0.028599
  15 C :   -0.037017
  16 C :   -0.002749
  17 C :    0.006019
  18 C :   -0.026802
  19 H :    0.034178
  20 C :   -0.024166
  21 H :    0.037804
  22 C :   -0.012950
  23 H :    0.029650
  24 H :    0.030403
  25 H :    0.029474
  26 C :   -0.020717
  27 C :   -0.004589
  28 C :    0.014363
  29 C :   -0.019724
  30 H :    0.032425
  31 C :   -0.018220
  32 H :    0.056651
  33 C :   -0.010907
  34 H :    0.030795
  35 H :    0.032438
  36 H :    0.030967

  Mayer bond orders larger than 0.100000
B(  0-C ,  1-O ) :   1.3664 B(  0-C ,  4-C ) :   0.3103 B(  0-C , 15-C ) :   0.9693
B(  0-C , 26-C ) :   0.9648 B(  1-O ,  2-Mg) :   0.5880 B(  2-Mg,  3-Br) :   1.1540
B(  2-Mg,  4-C ) :   0.4425 B(  4-C ,  5-C ) :   1.3573 B(  4-C ,  6-C ) :   1.2706
B(  5-C ,  7-C ) :   1.4016 B(  5-C ,  8-H ) :   0.9644 B(  6-C ,  9-C ) :   1.4272
B(  6-C , 10-H ) :   0.9445 B(  7-C , 11-C ) :   1.3741 B(  7-C , 12-H ) :   0.9834
B(  9-C , 11-C ) :   1.3716 B(  9-C , 13-H ) :   0.9825 B( 11-C , 14-H ) :   0.9818
B( 15-C , 16-C ) :   1.3382 B( 15-C , 17-C ) :   1.4119 B( 16-C , 18-C ) :   1.3949
B( 16-C , 19-H ) :   0.9793 B( 17-C , 20-C ) :   1.3440 B( 17-C , 21-H ) :   0.9847
B( 18-C , 22-C ) :   1.3576 B( 18-C , 23-H ) :   0.9848 B( 20-C , 22-C ) :   1.3848
B( 20-C , 24-H ) :   0.9851 B( 22-C , 25-H ) :   0.9868 B( 26-C , 27-C ) :   1.3778
B( 26-C , 28-C ) :   1.3436 B( 27-C , 29-C ) :   1.3787 B( 27-C , 30-H ) :   0.9728
B( 28-C , 31-C ) :   1.3955 B( 28-C , 32-H ) :   0.9615 B( 29-C , 33-C ) :   1.3844
B( 29-C , 34-H ) :   0.9806 B( 31-C , 33-C ) :   1.3574 B( 31-C , 35-H ) :   0.9838
B( 33-C , 36-H ) :   0.9859

Dispersion correction           -0.098589023
FINAL SINGLE POINT ENERGY     -3581.080281942418
Dispersion correction             ... done (  0.0 sec)

DIPOLE MOMENT
-------------

Method             : SCF
Type of density    : Electron Density
Multiplicity       :   1
Irrep              :   0
Energy             : -3580.9816929190778865 Eh
Basis              : AO
                                X                 Y                 Z
Electronic contribution:     36.651574566      41.503570581      22.724531696
Nuclear contribution   :    -37.982998654     -43.392594272     -23.673316630
                        -----------------------------------------
Total Dipole Moment    :     -1.331424088      -1.889023690      -0.948784933
                        -----------------------------------------
Magnitude (a.u.)       :      2.498258084
Magnitude (Debye)      :      6.350067402

Rotational constants in cm-1:             0.008118             0.005435             0.004789
Rotational constants in MHz :           243.358106           162.925688           143.578578

                             ****ORCA TERMINATED NORMALLY****
TOTAL RUN TIME: 0 days 0 hours 1 minutes 27 seconds 153 msec
