                         Program Version 6.1.0  -  RELEASE   -
|  1> ! B3LYP def2-SVP d3 EnGrad
|  2> %pal nprocs 6 end
|  3> *xyz 0 1
|  4> C   0.61957956534516 -0.37693829367339 0.5407327191526
|  5> O   1.3331615570637 0.73270308487799 0.01240788492704
|  6> C   -0.68351375506293 -0.57497735675793 -0.22278139862986
|  7> O   -1.43315575698935 0.61289834009779 -0.24372875322675
|  8> H   1.22660636598254 -1.30373697771927 0.53717910073339
|  9> H   0.39784803308855 -0.12128106765154 1.5892807928028
| 10> H   1.67801164605234 0.48167214017105 -0.8559174164729
| 11> H   -1.29130916122693 -1.36324724538461 0.25430395566953
| 12> H   -0.78577959392928 1.32430206281985 -0.37224928198881
| 13> H   -0.44737290032379 -0.93161868677997 -1.25247860296703
| 14> *
| 15>
| 16>                          ****END OF INPUT****

CARTESIAN COORDINATES (ANGSTROEM)
---------------------------------
  C      0.619580   -0.376938    0.540733
  O      1.333162    0.732703    0.012408
  C     -0.683514   -0.574977   -0.222781
  O     -1.433156    0.612898   -0.243729
  H      1.226606   -1.303737    0.537179
  H      0.397848   -0.121281    1.589281
  H      1.678012    0.481672   -0.855917
  H     -1.291309   -1.363247    0.254304
  H     -0.785780    1.324302   -0.372249
  H     -0.447373   -0.931619   -1.252479

 Total Charge           Charge          ....    0
 Multiplicity           Mult            ....    1
 Number of Electrons    NEL             ....   34
 Basis Dimension        Dim             ....   86

ORBITAL ENERGIES
----------------

  NO   OCC          E(Eh)            E(eV)
   0   2.0000     -19.142588      -520.8963
   1   2.0000     -19.116928      -520.1981
   2   2.0000     -10.234496      -278.4948
   3   2.0000     -10.227775      -278.3119
   4   2.0000      -1.025192       -27.8969
   5   2.0000      -0.991864       -26.9900
   6   2.0000      -0.725376       -19.7385
   7   2.0000      -0.620188       -16.8762
   8   2.0000      -0.518912       -14.1203
   9   2.0000      -0.493466       -13.4279
  10   2.0000      -0.462978       -12.5983
  11   2.0000      -0.438210       -11.9243
  12   2.0000      -0.398049       -10.8315
  13   2.0000      -0.342165        -9.3108
  14   2.0000      -0.330839        -9.0026
  15   2.0000      -0.292522        -7.9599
  16   2.0000      -0.259649        -7.0654
  17   0.0000       0.039261         1.0684
  18   0.0000       0.084437         2.2977
  19   0.0000       0.102489         2.7889
  20   0.0000       0.111391         3.0311
  21   0.0000       0.124396         3.3850

MULLIKEN ATOMIC CHARGES
-----------------------
   0 C :    0.155057
   1 O :   -0.329498
   2 C :    0.180491
   3 O :   -0.317535
   4 H :   -0.001863
   5 H :    0.015861
   6 H :    0.164952
   7 H :    0.001827
   8 H :    0.156238
   9 H :   -0.025530
Sum of atomic charges:    0.0000000

LOEWDIN ATOMIC CHARGES
----------------------
   0 C :    0.052600
   1 O :   -0.140891
   2 C :    0.048806
   3 O :   -0.143370
   4 H :    0.007580
   5 H :    0.021804
   6 H :    0.077161
   7 H :    0.018942
   8 H :    0.063072
   9 H :   -0.005705

  Mayer bond orders larger than 0.100000
B(  0-C ,  1-O ) :   1.0009 B(  0-C ,  2-C ) :   1.0731 B(  0-C ,  4-H ) :   0.9434
B(  0-C ,  5-H ) :   0.9416 B(  1-O ,  6-H ) :   0.9809 B(  2-C ,  3-O ) :   1.0569
B(  2-C ,  7-H ) :   0.9392 B(  2-C ,  9-H ) :   0.9265 B(  3-O ,  8-H ) :   0.9656

Dispersion correction           -0.009177903
FINAL SINGLE POINT ENERGY      -229.962623277107
Dispersion correction             ... done (  0.0 sec)

DIPOLE MOMENT
-------------

Method             : SCF
Type of density    : Electron Density
Multiplicity       :   1
Irrep              :   0
Energy             :  -229.9534453737342119 Eh
Basis              : AO
                                X                 Y                 Z
Electronic contribution:     -0.221288446       1.991708362      -0.235504622
Nuclear contribution   :      0.872790908      -2.520128536      -0.098707465
                        -----------------------------------------
Total Dipole Moment    :      0.651502462      -0.528420174      -0.334212087
                        -----------------------------------------
Magnitude (a.u.)       :      0.902984528
Magnitude (Debye)      :      2.295204267

Rotational constants in cm-1:             0.498330             0.191824             0.156829
Rotational constants in MHz :         14939.566040          5750.724014          4701.606738

                             ****ORCA TERMINATED NORMALLY****
TOTAL RUN TIME: 0 days 0 hours 0 minutes 9 seconds 346 msec
