                         Program Version 6.1.0  -  RELEASE   -
|  1> ! B3LYP def2-SVP d3 EnGrad
|  2> %pal nprocs 6 end
|  3> *xyz 0 1
|  4> C   -1.75720607854599 -0.06272897679662 -0.23504166718347
|  5> C   -0.26830099436456 0.48047120747852 -0.8170196315324
|  6> N   0.9913443150672 0.54217107065949 -0.74548381063142
|  7> C   1.82146221378097 -0.00226218609779 0.29875925042948
|  8> H   -0.48358163042424 -0.17175701092799 0.32258686752244
|  9> H   -2.0208186569283 -0.83155231725082 0.54194519837883
| 10> H   -2.2225306102707 0.88347363955412 0.06790028035158
| 11> H   -2.23477798138481 -0.40465805155754 -1.16754527802402
| 12> H   2.5580588835815 -0.70220265506994 -0.13137331604856
| 13> H   2.39361145784283 0.8052650066091 0.78699069572116
| 14> H   1.22273908164611 -0.53621972660054 1.07828141101636
| 15> *
| 16>
| 17>                          ****END OF INPUT****

CARTESIAN COORDINATES (ANGSTROEM)
---------------------------------
  C     -1.757206   -0.062729   -0.235042
  C     -0.268301    0.480471   -0.817020
  N      0.991344    0.542171   -0.745484
  C      1.821462   -0.002262    0.298759
  H     -0.483582   -0.171757    0.322587
  H     -2.020819   -0.831552    0.541945
  H     -2.222531    0.883474    0.067900
  H     -2.234778   -0.404658   -1.167545
  H      2.558059   -0.702203   -0.131373
  H      2.393611    0.805265    0.786991
  H      1.222739   -0.536220    1.078281

 Total Charge           Charge          ....    0
 Multiplicity           Mult            ....    1
 Number of Electrons    NEL             ....   32
 Basis Dimension        Dim             ....   91

ORBITAL ENERGIES
----------------

  NO   OCC          E(Eh)            E(eV)
   0   2.0000     -14.319203      -389.6453
   1   2.0000     -10.264416      -279.3090
   2   2.0000     -10.211306      -277.8638
   3   2.0000     -10.209710      -277.8203
   4   2.0000      -0.906463       -24.6661
   5   2.0000      -0.761131       -20.7114
   6   2.0000      -0.687365       -18.7041
   7   2.0000      -0.540719       -14.7137
   8   2.0000      -0.477294       -12.9878
   9   2.0000      -0.457976       -12.4622
  10   2.0000      -0.446184       -12.1413
  11   2.0000      -0.426061       -11.5937
  12   2.0000      -0.421005       -11.4561
  13   2.0000      -0.291976        -7.9451
  14   2.0000      -0.289402        -7.8750
  15   2.0000      -0.173086        -4.7099
  16   0.0000      -0.000990        -0.0270
  17   0.0000       0.019739         0.5371
  18   0.0000       0.077424         2.1068
  19   0.0000       0.087470         2.3802
  20   0.0000       0.096820         2.6346

MULLIKEN ATOMIC CHARGES
-----------------------
   0 C :    0.040297
   1 C :   -0.251030
   2 N :   -0.155084
   3 C :    0.114639
   4 H :    0.037667
   5 H :    0.025918
   6 H :    0.074370
   7 H :    0.079840
   8 H :    0.027452
   9 H :    0.028286
  10 H :   -0.022354
Sum of atomic charges:    0.0000000

LOEWDIN ATOMIC CHARGES
----------------------
   0 C :    0.034123
   1 C :   -0.166937
   2 N :   -0.110141
   3 C :   -0.003644
   4 H :    0.087987
   5 H :    0.007468
   6 H :    0.062535
   7 H :    0.046610
   8 H :    0.027605
   9 H :    0.027880
  10 H :   -0.013487

  Mayer bond orders larger than 0.100000
B(  0-C ,  1-C ) :   0.6634 B(  0-C ,  4-H ) :   0.3717 B(  0-C ,  5-H ) :   0.9092
B(  0-C ,  6-H ) :   0.9625 B(  0-C ,  7-H ) :   0.9491 B(  1-C ,  2-N ) :   2.0673
B(  1-C ,  4-H ) :   0.5136 B(  2-N ,  3-C ) :   1.0251 B(  3-C ,  8-H ) :   0.9618
B(  3-C ,  9-H ) :   0.9621 B(  3-C , 10-H ) :   0.9106

Dispersion correction           -0.010676896
FINAL SINGLE POINT ENERGY      -172.835609151205
Dispersion correction             ... done (  0.1 sec)

DIPOLE MOMENT
-------------

Method             : SCF
Type of density    : Electron Density
Multiplicity       :   1
Irrep              :   0
Energy             :  -172.8249322548662974 Eh
Basis              : AO
                                X                 Y                 Z
Electronic contribution:      1.413819513       1.689623852      -2.598457974
Nuclear contribution   :     -1.958174415      -2.233032930       3.471730248
                        -----------------------------------------
Total Dipole Moment    :     -0.544354902      -0.543409078       0.873272274
                        -----------------------------------------
Magnitude (a.u.)       :      1.163709650
Magnitude (Debye)      :      2.957914861

Rotational constants in cm-1:             0.774843             0.137690             0.122344
Rotational constants in MHz :         23229.214794          4127.835800          3667.783144

                             ****ORCA TERMINATED NORMALLY****
TOTAL RUN TIME: 0 days 0 hours 0 minutes 10 seconds 389 msec
