                         Program Version 6.1.0  -  RELEASE   -
|  1> ! B3LYP def2-SVP d3 EnGrad
|  2> %pal nprocs 6 end
|  3> *xyz 0 1
|  4> C   1.12187133e-06 0.52271860601234 -1.425043e-08
|  5> O   3.87634996e-06 -0.6770834521769 4.58378e-09
|  6> H   -0.94509038353639 1.12634697889763 4.83331e-09
|  7> H   0.94509038531513 1.12635086726693 4.83332e-09
|  8> *
|  9>
| 10>                          ****END OF INPUT****

CARTESIAN COORDINATES (ANGSTROEM)
---------------------------------
  C      0.000001    0.522719   -0.000000
  O      0.000004   -0.677083    0.000000
  H     -0.945090    1.126347    0.000000
  H      0.945090    1.126351    0.000000

 Total Charge           Charge          ....    0
 Multiplicity           Mult            ....    1
 Number of Electrons    NEL             ....   16
 Basis Dimension        Dim             ....   38

ORBITAL ENERGIES
----------------

  NO   OCC          E(Eh)            E(eV)
   0   2.0000     -19.150586      -521.1139
   1   2.0000     -10.286767      -279.9172
   2   2.0000      -1.050267       -28.5792
   3   2.0000      -0.622990       -16.9524
   4   2.0000      -0.492025       -13.3887
   5   2.0000      -0.448826       -12.2132
   6   2.0000      -0.403014       -10.9666
   7   2.0000      -0.267594        -7.2816
   8   0.0000      -0.043142        -1.1740
   9   0.0000       0.069350         1.8871
  10   0.0000       0.134912         3.6711
  11   0.0000       0.198463         5.4005
  12   0.0000       0.444177        12.0867

MULLIKEN ATOMIC CHARGES
-----------------------
   0 C :    0.167242
   1 O :   -0.201274
   2 H :    0.017016
   3 H :    0.017016
Sum of atomic charges:    0.0000000

LOEWDIN ATOMIC CHARGES
----------------------
   0 C :    0.133315
   1 O :   -0.112528
   2 H :   -0.010393
   3 H :   -0.010393

  Mayer bond orders larger than 0.100000
B(  0-C ,  1-O ) :   2.1448 B(  0-C ,  2-H ) :   0.9119 B(  0-C ,  3-H ) :   0.9119

Dispersion correction           -0.001834006
FINAL SINGLE POINT ENERGY      -114.358172746446
Dispersion correction             ... done (  0.0 sec)

DIPOLE MOMENT
-------------

Method             : SCF
Type of density    : Electron Density
Multiplicity       :   1
Irrep              :   0
Energy             :  -114.3563387403287663 Eh
Basis              : AO
                                X                 Y                 Z
Electronic contribution:      0.000002645      -1.413178083      -0.000000023
Nuclear contribution   :     -0.000004696       2.247241321       0.000000015
                        -----------------------------------------
Total Dipole Moment    :     -0.000002051       0.834063238      -0.000000008
                        -----------------------------------------
Magnitude (a.u.)       :      0.834063238
Magnitude (Debye)      :      2.120020270

Rotational constants in cm-1:             9.361799             1.296702             1.138947
Rotational constants in MHz :        280659.669320         38874.154816         34144.765317

                             ****ORCA TERMINATED NORMALLY****
TOTAL RUN TIME: 0 days 0 hours 0 minutes 4 seconds 785 msec
