                         Program Version 6.1.0  -  RELEASE   -
|  1> ! B3LYP def2-SVP d3 EnGrad
|  2> %pal nprocs 6 end
|  3> *xyz 0 1
|  4> C   2.06245597536851 0.22398187350386 -0.01715152520817
|  5> C   0.65648120343494 0.71157419890168 0.173736222794
|  6> H   2.56079955476657 0.74435896997177 -0.85514981853521
|  7> H   2.11029095267115 -0.85455178705438 -0.22663686550993
|  8> H   2.681702718281 0.41206952310949 0.87848034467426
|  9> C   -0.47842612180089 -0.00860759884112 0.10688649015855
| 10> O   -1.71485968835935 0.54445264158492 0.29745114018717
| 11> C   -0.60688304431812 -1.47460755566386 -0.17251153634021
| 12> H   0.36358994709371 -1.95552719037455 -0.34237347113343
| 13> H   -1.24333876447706 -1.63222944138198 -1.05927837779224
| 14> H   -1.10859141630825 -1.97474194790707 0.6728360759908
| 15> H   -1.60915358115483 1.48816672718243 0.48137204867127
| 16> H   0.54846626480258 1.78405058696879 0.39095727204316
| 17> *
| 18>
| 19>                          ****END OF INPUT****

CARTESIAN COORDINATES (ANGSTROEM)
---------------------------------
  C      2.062456    0.223982   -0.017152
  C      0.656481    0.711574    0.173736
  H      2.560800    0.744359   -0.855150
  H      2.110291   -0.854552   -0.226637
  H      2.681703    0.412070    0.878480
  C     -0.478426   -0.008608    0.106886
  O     -1.714860    0.544453    0.297451
  C     -0.606883   -1.474608   -0.172512
  H      0.363590   -1.955527   -0.342373
  H     -1.243339   -1.632229   -1.059278
  H     -1.108591   -1.974742    0.672836
  H     -1.609154    1.488167    0.481372
  H      0.548466    1.784051    0.390957

 Total Charge           Charge          ....    0
 Multiplicity           Mult            ....    1
 Number of Electrons    NEL             ....   40
 Basis Dimension        Dim             ....  110

ORBITAL ENERGIES
----------------

  NO   OCC          E(Eh)            E(eV)
   0   2.0000     -19.147312      -521.0248
   1   2.0000     -10.232899      -278.4513
   2   2.0000     -10.181679      -277.0576
   3   2.0000     -10.179979      -277.0113
   4   2.0000     -10.166032      -276.6318
   5   2.0000      -1.032924       -28.1073
   6   2.0000      -0.773182       -21.0394
   7   2.0000      -0.714591       -19.4450
   8   2.0000      -0.641035       -17.4435
   9   2.0000      -0.571320       -15.5464
  10   2.0000      -0.488050       -13.2805
  11   2.0000      -0.437874       -11.9152
  12   2.0000      -0.428354       -11.6561
  13   2.0000      -0.398571       -10.8457
  14   2.0000      -0.396111       -10.7787
  15   2.0000      -0.381194       -10.3728
  16   2.0000      -0.353477        -9.6186
  17   2.0000      -0.350063        -9.5257
  18   2.0000      -0.344544        -9.3755
  19   2.0000      -0.209542        -5.7019
  20   0.0000       0.043617         1.1869
  21   0.0000       0.057240         1.5576
  22   0.0000       0.073772         2.0074
  23   0.0000       0.096003         2.6124
  24   0.0000       0.111407         3.0315

MULLIKEN ATOMIC CHARGES
-----------------------
   0 C :    0.076132
   1 C :   -0.162230
   2 H :    0.014362
   3 H :    0.001128
   4 H :    0.013925
   5 C :    0.000587
   6 O :   -0.220159
   7 C :    0.092414
   8 H :    0.003800
   9 H :    0.025114
  10 H :    0.025394
  11 H :    0.166448
  12 H :   -0.036914
Sum of atomic charges:   -0.0000000

LOEWDIN ATOMIC CHARGES
----------------------
   0 C :   -0.052120
   1 C :   -0.139121
   2 H :    0.027023
   3 H :    0.023549
   4 H :    0.026959
   5 C :    0.035052
   6 O :   -0.070829
   7 C :   -0.052134
   8 H :    0.028435
   9 H :    0.036734
  10 H :    0.036798
  11 H :    0.086167
  12 H :    0.013487

  Mayer bond orders larger than 0.100000
B(  0-C ,  1-C ) :   1.0826 B(  0-C ,  2-H ) :   0.9521 B(  0-C ,  3-H ) :   0.9617
B(  0-C ,  4-H ) :   0.9520 B(  1-C ,  5-C ) :   1.8159 B(  1-C , 12-H ) :   0.9365
B(  5-C ,  6-O ) :   1.1497 B(  5-C ,  7-C ) :   1.0965 B(  6-O , 11-H ) :   0.9667
B(  7-C ,  8-H ) :   0.9554 B(  7-C ,  9-H ) :   0.9431 B(  7-C , 10-H ) :   0.9433

Dispersion correction           -0.014742051
FINAL SINGLE POINT ENERGY      -232.147348974810
Dispersion correction             ... done (  0.1 sec)

DIPOLE MOMENT
-------------

Method             : SCF
Type of density    : Electron Density
Multiplicity       :   1
Irrep              :   0
Energy             :  -232.1326069237224772 Eh
Basis              : AO
                                X                 Y                 Z
Electronic contribution:     -4.173643838       2.081932997       0.686981675
Nuclear contribution   :      4.374884999      -1.870818820      -0.655670777
                        -----------------------------------------
Total Dipole Moment    :      0.201241161       0.211114177       0.031310898
                        -----------------------------------------
Magnitude (a.u.)       :      0.293338666
Magnitude (Debye)      :      0.745607634

Rotational constants in cm-1:             0.286508             0.121080             0.087915
Rotational constants in MHz :          8589.290780          3629.882297          2635.624513

                             ****ORCA TERMINATED NORMALLY****
TOTAL RUN TIME: 0 days 0 hours 0 minutes 13 seconds 341 msec
