                         Program Version 6.1.0  -  RELEASE   -
|  1> ! B3LYP def2-SVP d3 EnGrad
|  2> %pal nprocs 6 end
|  3> *xyz 0 1
|  4> C   -0.94011161965122 -1.74676930373689 0.44744094158768
|  5> C   -1.57529302062126 -0.80762230069986 -0.35204898202382
|  6> C   -1.32244296228106 0.56514032467379 -0.2670708115706
|  7> C   -0.26757663689214 1.05073663543884 0.57827027622667
|  8> C   1.24285815248068 0.23660633370837 0.23373818981421
|  9> C   1.90931898131981 0.74186076063466 -0.87623216076973
| 10> H   -2.19081646047359 -1.16610889224181 -1.18557145598123
| 11> H   -0.56087776296504 -1.49549574805356 1.44022221564037
| 12> H   -1.021336675423 -2.81450445746039 0.22746998162026
| 13> H   1.85615407583973 0.20861161524594 1.14829094006038
| 14> H   0.70912716938941 -0.7873243041068 0.13219605803642
| 15> H   1.38226813139671 0.88597931520929 -1.82538272408764
| 16> H   2.96497402337586 1.02382261347993 -0.84445070985768
| 17> H   -0.0852577072058 2.13034875695167 0.52168094710811
| 18> H   -0.33394136380262 0.74327104824561 1.63243902039717
| 19> H   -1.76704632448645 1.23144760271121 -1.01099172620054
| 20> *
| 21>
| 22>                          ****END OF INPUT****

CARTESIAN COORDINATES (ANGSTROEM)
---------------------------------
  C     -0.940112   -1.746769    0.447441
  C     -1.575293   -0.807622   -0.352049
  C     -1.322443    0.565140   -0.267071
  C     -0.267577    1.050737    0.578270
  C      1.242858    0.236606    0.233738
  C      1.909319    0.741861   -0.876232
  H     -2.190816   -1.166109   -1.185571
  H     -0.560878   -1.495496    1.440222
  H     -1.021337   -2.814504    0.227470
  H      1.856154    0.208612    1.148291
  H      0.709127   -0.787324    0.132196
  H      1.382268    0.885979   -1.825383
  H      2.964974    1.023823   -0.844451
  H     -0.085258    2.130349    0.521681
  H     -0.333941    0.743271    1.632439
  H     -1.767046    1.231448   -1.010992

 Total Charge           Charge          ....    0
 Multiplicity           Mult            ....    1
 Number of Electrons    NEL             ....   46
 Basis Dimension        Dim             ....  134

ORBITAL ENERGIES
----------------

  NO   OCC          E(Eh)            E(eV)
   0   2.0000     -10.198856      -277.5250
   1   2.0000     -10.196960      -277.4734
   2   2.0000     -10.187834      -277.2251
   3   2.0000     -10.183237      -277.1000
   4   2.0000     -10.182120      -277.0696
   5   2.0000     -10.175810      -276.8979
   6   2.0000      -0.807333       -21.9686
   7   2.0000      -0.750667       -20.4267
   8   2.0000      -0.697913       -18.9912
   9   2.0000      -0.627915       -17.0864
  10   2.0000      -0.566522       -15.4158
  11   2.0000      -0.518028       -14.0963
  12   2.0000      -0.486923       -13.2499
  13   2.0000      -0.461220       -12.5504
  14   2.0000      -0.431345       -11.7375
  15   2.0000      -0.411329       -11.1928
  16   2.0000      -0.393672       -10.7124
  17   2.0000      -0.367955       -10.0126
  18   2.0000      -0.365906        -9.9568
  19   2.0000      -0.344035        -9.3617
  20   2.0000      -0.334699        -9.1076
  21   2.0000      -0.272128        -7.4050
  22   2.0000      -0.177391        -4.8271
  23   0.0000      -0.076393        -2.0787
  24   0.0000       0.033507         0.9118
  25   0.0000       0.069143         1.8815
  26   0.0000       0.073442         1.9985
  27   0.0000       0.095483         2.5982

MULLIKEN ATOMIC CHARGES
-----------------------
   0 C :   -0.035615
   1 C :   -0.039375
   2 C :   -0.055696
   3 C :    0.033488
   4 C :   -0.011856
   5 C :   -0.073872
   6 H :   -0.007840
   7 H :    0.021613
   8 H :    0.023498
   9 H :    0.005321
  10 H :    0.036915
  11 H :    0.030362
  12 H :    0.034271
  13 H :    0.015969
  14 H :    0.033004
  15 H :   -0.010187
Sum of atomic charges:   -0.0000000

LOEWDIN ATOMIC CHARGES
----------------------
   0 C :   -0.084494
   1 C :   -0.041374
   2 C :   -0.072869
   3 C :   -0.003837
   4 C :   -0.027958
   5 C :   -0.041561
   6 H :    0.026793
   7 H :    0.020473
   8 H :    0.021924
   9 H :    0.023348
  10 H :    0.053188
  11 H :    0.018287
  12 H :    0.020912
  13 H :    0.026669
  14 H :    0.040249
  15 H :    0.020249

  Mayer bond orders larger than 0.100000
B(  0-C ,  1-C ) :   1.5594 B(  0-C ,  5-C ) :   0.2356 B(  0-C ,  7-H ) :   0.9347
B(  0-C ,  8-H ) :   0.9557 B(  0-C , 10-H ) :   0.1814 B(  1-C ,  2-C ) :   1.4415
B(  1-C ,  6-H ) :   0.9649 B(  2-C ,  3-C ) :   1.2831 B(  2-C ,  5-C ) :   0.2300
B(  2-C , 15-H ) :   0.9725 B(  3-C ,  4-C ) :   0.7757 B(  3-C , 13-H ) :   0.9449
B(  3-C , 14-H ) :   0.9104 B(  4-C ,  5-C ) :   1.5219 B(  4-C ,  9-H ) :   0.9349
B(  4-C , 10-H ) :   0.7868 B(  5-C , 11-H ) :   0.9646 B(  5-C , 12-H ) :   0.9664

Dispersion correction           -0.022877770
FINAL SINGLE POINT ENERGY      -234.198467991234
Dispersion correction             ... done (  0.1 sec)

DIPOLE MOMENT
-------------

Method             : SCF
Type of density    : Electron Density
Multiplicity       :   1
Irrep              :   0
Energy             :  -234.1755902209175986 Eh
Basis              : AO
                                X                 Y                 Z
Electronic contribution:     -1.889233862       0.241981587      -0.449756916
Nuclear contribution   :      2.092197774      -0.087688099       0.517761638
                        -----------------------------------------
Total Dipole Moment    :      0.202963912       0.154293488       0.068004722
                        -----------------------------------------
Magnitude (a.u.)       :      0.263866391
Magnitude (Debye)      :      0.670695064

Rotational constants in cm-1:             0.188143             0.080798             0.070480
Rotational constants in MHz :          5640.386940          2422.272638          2112.929976

                             ****ORCA TERMINATED NORMALLY****
TOTAL RUN TIME: 0 days 0 hours 0 minutes 20 seconds 464 msec
