                         Program Version 6.1.0  -  RELEASE   -
|  1> ! B3LYP def2-SVP d3 EnGrad
|  2> %pal nprocs 6 end
|  3> *xyz 0 1
|  4> C   0.50390856959638 -0.1586441563643 0.48249798664851
|  5> C   1.08949317863913 0.80970173121893 -0.37689190566145
|  6> C   2.39820458746187 0.66139111811036 -0.83478277619302
|  7> C   3.16724553267432 -0.44618239735368 -0.46044804970631
|  8> C   2.60719313691568 -1.40691438316112 0.39373779093007
|  9> C   1.30351571570937 -1.26992497862062 0.8608224634801
| 10> O   -0.73324754582945 -0.05345574144464 0.92359138600375
| 11> C   -2.79798338924383 1.55988234356288 0.30857761105331
| 12> C   -2.12039388913229 0.45447942416175 -0.22714608371949
| 13> C   -2.90316288213749 -0.70210233583816 -0.12663596741384
| 14> H   0.51269760880176 1.7003420053226 -0.63858845193676
| 15> H   2.82839234020501 1.42815003282215 -1.485781323327
| 16> H   4.19267236162199 -0.5552650099163 -0.82086760500231
| 17> H   3.19945846530508 -2.27499371034388 0.697717200155
| 18> H   0.85433851721135 -2.0149696930628 1.52181798706375
| 19> H   -3.46986833774113 1.42958513418309 1.15950403376006
| 20> H   -1.51713778644894 0.59725343064551 -1.12824666933871
| 21> H   -2.90570579837552 -1.47395198332837 -0.90178899324638
| 22> H   -3.5372627796873 -0.85161032808534 0.75027876144994
| 23> H   -2.672357605546 2.56722949749196 -0.09736739499923
| 24> *
| 25>
| 26>                          ****END OF INPUT****

CARTESIAN COORDINATES (ANGSTROEM)
---------------------------------
  C      0.503909   -0.158644    0.482498
  C      1.089493    0.809702   -0.376892
  C      2.398205    0.661391   -0.834783
  C      3.167246   -0.446182   -0.460448
  C      2.607193   -1.406914    0.393738
  C      1.303516   -1.269925    0.860822
  O     -0.733248   -0.053456    0.923591
  C     -2.797983    1.559882    0.308578
  C     -2.120394    0.454479   -0.227146
  C     -2.903163   -0.702102   -0.126636
  H      0.512698    1.700342   -0.638588
  H      2.828392    1.428150   -1.485781
  H      4.192672   -0.555265   -0.820868
  H      3.199458   -2.274994    0.697717
  H      0.854339   -2.014970    1.521818
  H     -3.469868    1.429585    1.159504
  H     -1.517138    0.597253   -1.128247
  H     -2.905706   -1.473952   -0.901789
  H     -3.537263   -0.851610    0.750279
  H     -2.672358    2.567229   -0.097367

 Total Charge           Charge          ....    0
 Multiplicity           Mult            ....    1
 Number of Electrons    NEL             ....   72
 Basis Dimension        Dim             ....  190

ORBITAL ENERGIES
----------------

  NO   OCC          E(Eh)            E(eV)
   0   2.0000     -19.100127      -519.7409
   1   2.0000     -10.246489      -278.8211
   2   2.0000     -10.245650      -278.7983
   3   2.0000     -10.230160      -278.3768
   4   2.0000     -10.216690      -278.0103
   5   2.0000     -10.173357      -276.8311
   6   2.0000     -10.172046      -276.7954
   7   2.0000     -10.166214      -276.6367
   8   2.0000     -10.165428      -276.6154
   9   2.0000     -10.162006      -276.5222
  10   2.0000      -0.971908       -26.4470
  11   2.0000      -0.826670       -22.4948
  12   2.0000      -0.811203       -22.0740
  13   2.0000      -0.717504       -19.5243
  14   2.0000      -0.692365       -18.8402
  15   2.0000      -0.684744       -18.6328
  16   2.0000      -0.592300       -16.1173
  17   2.0000      -0.577092       -15.7035
  18   2.0000      -0.559204       -15.2167
  19   2.0000      -0.513764       -13.9802
  20   2.0000      -0.488489       -13.2925
  21   2.0000      -0.459020       -12.4906
  22   2.0000      -0.452294       -12.3076
  23   2.0000      -0.439925       -11.9710
  24   2.0000      -0.416516       -11.3340
  25   2.0000      -0.409097       -11.1321
  26   2.0000      -0.404550       -11.0084
  27   2.0000      -0.399356       -10.8670
  28   2.0000      -0.370697       -10.0872
  29   2.0000      -0.348830        -9.4922
  30   2.0000      -0.335619        -9.1326
  31   2.0000      -0.314965        -8.5706
  32   2.0000      -0.281720        -7.6660
  33   2.0000      -0.237343        -6.4584
  34   2.0000      -0.231980        -6.3125
  35   2.0000      -0.187794        -5.1101
  36   0.0000      -0.123942        -3.3726
  37   0.0000       0.008849         0.2408
  38   0.0000       0.021823         0.5938
  39   0.0000       0.051177         1.3926
  40   0.0000       0.059689         1.6242

MULLIKEN ATOMIC CHARGES
-----------------------
   0 C :    0.206932
   1 C :   -0.075265
   2 C :    0.024071
   3 C :    0.008570
   4 C :    0.023026
   5 C :   -0.034908
   6 O :   -0.367685
   7 C :   -0.055369
   8 C :    0.195027
   9 C :   -0.022735
  10 H :   -0.041993
  11 H :   -0.027811
  12 H :   -0.029134
  13 H :   -0.025527
  14 H :   -0.038437
  15 H :    0.053947
  16 H :    0.020530
  17 H :    0.066118
  18 H :    0.065650
  19 H :    0.054994
Sum of atomic charges:    0.0000000

LOEWDIN ATOMIC CHARGES
----------------------
   0 C :    0.023852
   1 C :   -0.078836
   2 C :   -0.026209
   3 C :   -0.056562
   4 C :   -0.025682
   5 C :   -0.058499
   6 O :   -0.226664
   7 C :    0.030264
   8 C :    0.047941
   9 C :    0.088557
  10 H :    0.016289
  11 H :    0.022514
  12 H :    0.020807
  13 H :    0.023272
  14 H :    0.021975
  15 H :    0.032765
  16 H :    0.035436
  17 H :    0.038150
  18 H :    0.038374
  19 H :    0.032257

  Mayer bond orders larger than 0.100000
B(  0-C ,  1-C ) :   1.2749 B(  0-C ,  5-C ) :   1.3023 B(  0-C ,  6-O ) :   1.3037
B(  1-C ,  2-C ) :   1.3826 B(  1-C , 10-H ) :   0.9787 B(  2-C ,  3-C ) :   1.3708
B(  2-C , 11-H ) :   0.9776 B(  3-C ,  4-C ) :   1.3522 B(  3-C , 12-H ) :   0.9861
B(  4-C ,  5-C ) :   1.3995 B(  4-C , 13-H ) :   0.9805 B(  5-C , 14-H ) :   0.9845
B(  6-O ,  7-C ) :   0.1646 B(  6-O ,  8-C ) :   0.3743 B(  6-O ,  9-C ) :   0.2118
B(  7-C ,  8-C ) :   1.3624 B(  7-C ,  9-C ) :   0.3772 B(  7-C , 15-H ) :   0.9579
B(  7-C , 19-H ) :   0.9586 B(  8-C ,  9-C ) :   1.3457 B(  8-C , 16-H ) :   0.9372
B(  9-C , 17-H ) :   0.9560 B(  9-C , 18-H ) :   0.9582

Dispersion correction           -0.033532293
FINAL SINGLE POINT ENERGY      -423.509234932192
Dispersion correction             ... done (  0.0 sec)

DIPOLE MOMENT
-------------

Method             : SCF
Type of density    : Electron Density
Multiplicity       :   1
Irrep              :   0
Energy             :  -423.4757026388626286 Eh
Basis              : AO
                                X                 Y                 Z
Electronic contribution:      2.747140080      -0.794879531       1.279178232
Nuclear contribution   :     -4.103109829       0.956959158      -1.856158792
                        -----------------------------------------
Total Dipole Moment    :     -1.355969749       0.162079626      -0.576980560
                        -----------------------------------------
Magnitude (a.u.)       :      1.482508122
Magnitude (Debye)      :      3.768236179

Rotational constants in cm-1:             0.110571             0.024277             0.021497
Rotational constants in MHz :          3314.846549           727.815553           644.452406

                             ****ORCA TERMINATED NORMALLY****
TOTAL RUN TIME: 0 days 0 hours 0 minutes 38 seconds 472 msec
