                         Program Version 6.1.0  -  RELEASE   -
|  1> ! B3LYP def2-SVP d3 EnGrad
|  2> %pal nprocs 6 end
|  3> *xyz 0 1
|  4> C   2.84557361665013 -0.4585465949727 -0.07720066012932
|  5> C   1.62070082493808 0.09340210429964 0.58894865450967
|  6> C   0.34708083953047 0.01928725398878 0.16034033102657
|  7> C   -0.13127897198996 -0.65798235815176 -1.09432410418858
|  8> O   -0.63307493211697 0.62424873260378 0.89183520905402
|  9> H   3.57578600689546 0.33892655220076 -0.30861075973681
| 10> H   2.62342731590145 -0.9769324456937 -1.02204222593454
| 11> H   3.37362073674633 -1.17976107762112 0.57391694899469
| 12> H   0.67872797330211 -1.15925978071114 -1.63818955919976
| 13> H   -0.60007664685425 0.07807928864091 -1.77174110203265
| 14> H   -0.90927923144364 -1.40439755751438 -0.85820572517892
| 15> H   -3.44330263793616 -0.61100221507682 1.0966274550173
| 16> H   1.76972109714276 0.63179908776245 1.53190150337484
| 17> H   -1.51142201950837 0.36242117168089 0.55612863729701
| 18> O   -3.19987830967781 -0.21382288546591 0.24773874660807
| 19> H   -3.81129366157962 0.52968872403036 0.14621165051838
| 20> *
| 21>
| 22>                          ****END OF INPUT****

CARTESIAN COORDINATES (ANGSTROEM)
---------------------------------
  C      2.845574   -0.458547   -0.077201
  C      1.620701    0.093402    0.588949
  C      0.347081    0.019287    0.160340
  C     -0.131279   -0.657982   -1.094324
  O     -0.633075    0.624249    0.891835
  H      3.575786    0.338927   -0.308611
  H      2.623427   -0.976932   -1.022042
  H      3.373621   -1.179761    0.573917
  H      0.678728   -1.159260   -1.638190
  H     -0.600077    0.078079   -1.771741
  H     -0.909279   -1.404398   -0.858206
  H     -3.443303   -0.611002    1.096627
  H      1.769721    0.631799    1.531902
  H     -1.511422    0.362421    0.556129
  O     -3.199878   -0.213823    0.247739
  H     -3.811294    0.529689    0.146212

 Total Charge           Charge          ....    0
 Multiplicity           Mult            ....    1
 Number of Electrons    NEL             ....   50
 Basis Dimension        Dim             ....  134

ORBITAL ENERGIES
----------------

  NO   OCC          E(Eh)            E(eV)
   0   2.0000     -19.171209      -521.6751
   1   2.0000     -19.112623      -520.0809
   2   2.0000     -10.210815      -277.8504
   3   2.0000     -10.172900      -276.8187
   4   2.0000     -10.164526      -276.5908
   5   2.0000     -10.140785      -275.9448
   6   2.0000      -1.029720       -28.0201
   7   2.0000      -1.000521       -27.2256
   8   2.0000      -0.753991       -20.5171
   9   2.0000      -0.694950       -18.9106
  10   2.0000      -0.635632       -17.2964
  11   2.0000      -0.559707       -15.2304
  12   2.0000      -0.521861       -14.2006
  13   2.0000      -0.475145       -12.9294
  14   2.0000      -0.444766       -12.1027
  15   2.0000      -0.420933       -11.4542
  16   2.0000      -0.412564       -11.2264
  17   2.0000      -0.381216       -10.3734
  18   2.0000      -0.371202       -10.1009
  19   2.0000      -0.367427        -9.9982
  20   2.0000      -0.350613        -9.5407
  21   2.0000      -0.335098        -9.1185
  22   2.0000      -0.328505        -8.9391
  23   2.0000      -0.304700        -8.2913
  24   2.0000      -0.185390        -5.0447
  25   0.0000       0.015109         0.4111
  26   0.0000       0.061524         1.6742
  27   0.0000       0.081616         2.2209
  28   0.0000       0.096905         2.6369
  29   0.0000       0.110946         3.0190

MULLIKEN ATOMIC CHARGES
-----------------------
   0 C :    0.079746
   1 C :   -0.149266
   2 C :   -0.003104
   3 C :    0.077445
   4 O :   -0.245825
   5 H :    0.008136
   6 H :   -0.009445
   7 H :    0.007524
   8 H :    0.001054
   9 H :    0.013078
  10 H :    0.014131
  11 H :    0.175866
  12 H :   -0.025014
  13 H :    0.131739
  14 O :   -0.251020
  15 H :    0.174954
Sum of atomic charges:    0.0000000

LOEWDIN ATOMIC CHARGES
----------------------
   0 C :   -0.055227
   1 C :   -0.126419
   2 C :    0.027874
   3 C :   -0.065499
   4 O :   -0.089919
   5 H :    0.023933
   6 H :    0.018788
   7 H :    0.023487
   8 H :    0.027597
   9 H :    0.029250
  10 H :    0.028069
  11 H :    0.092101
  12 H :    0.019457
  13 H :    0.036333
  14 O :   -0.082332
  15 H :    0.092508

  Mayer bond orders larger than 0.100000
B(  0-C ,  1-C ) :   1.0861 B(  0-C ,  5-H ) :   0.9515 B(  0-C ,  6-H ) :   0.9582
B(  0-C ,  7-H ) :   0.9523 B(  1-C ,  2-C ) :   1.8391 B(  1-C , 12-H ) :   0.9390
B(  2-C ,  3-C ) :   1.0956 B(  2-C ,  4-O ) :   1.1775 B(  3-C ,  8-H ) :   0.9443
B(  3-C ,  9-H ) :   0.9410 B(  3-C , 10-H ) :   0.9371 B(  4-O , 13-H ) :   0.9172
B( 11-H , 14-O ) :   0.9867 B( 13-H , 14-O ) :   0.1736 B( 14-O , 15-H ) :   0.9885

Dispersion correction           -0.017472422
FINAL SINGLE POINT ENERGY      -308.484019803576
Dispersion correction             ... done (  0.0 sec)

DIPOLE MOMENT
-------------

Method             : SCF
Type of density    : Electron Density
Multiplicity       :   1
Irrep              :   0
Energy             :  -308.4665473814168877 Eh
Basis              : AO
                                X                 Y                 Z
Electronic contribution:     -3.497281190       2.070442786       2.722764230
Nuclear contribution   :      1.928731868      -2.244477694      -2.768446227
                        -----------------------------------------
Total Dipole Moment    :     -1.568549322      -0.174034908      -0.045681997
                        -----------------------------------------
Magnitude (a.u.)       :      1.578835637
Magnitude (Debye)      :      4.013081265

Rotational constants in cm-1:             0.267548             0.045146             0.039852
Rotational constants in MHz :          8020.893895          1353.438987          1194.739924

                             ****ORCA TERMINATED NORMALLY****
TOTAL RUN TIME: 0 days 0 hours 0 minutes 16 seconds 353 msec
