                         Program Version 6.1.0  -  RELEASE   -
|  1> ! B3LYP def2-SVP d3 EnGrad
|  2> %pal nprocs 6 end
|  3> *xyz 0 1
|  4> C   1.335417252e-05 -1.837431181892 0.6703130281102
|  5> H   3.589882694e-05 -2.76024035855846 1.25686671707068
|  6> C   -1.949849441e-05 -0.51028990979924 1.36468711438348
|  7> H   -0.89977736510594 -0.32039652284719 1.97046075858213
|  8> H   0.89969813923676 -0.32037992504268 1.97051534654084
|  9> C   1.459541179e-05 -1.83743143086562 -0.6703134501681
| 10> C   -1.640351354e-05 -0.51029011763376 -1.36468774866388
| 11> H   -0.89977185604323 -0.32039734862735 -1.97046542949888
| 12> H   3.680498079e-05 -2.76024085648228 -1.25686662719525
| 13> H   0.89970354675253 -0.3203814534521 -1.97051268060824
| 14> S   1.324936708e-05 0.73291847335398 2.0515423e-07
| 15> O   -1.27997392661157 1.45010604550717 -2.84143e-08
| 16> O   1.28004447102028 1.45002758633952 2.80470713e-06
| 17> *
| 18>
| 19>                          ****END OF INPUT****

CARTESIAN COORDINATES (ANGSTROEM)
---------------------------------
  C      0.000013   -1.837431    0.670313
  H      0.000036   -2.760240    1.256867
  C     -0.000019   -0.510290    1.364687
  H     -0.899777   -0.320397    1.970461
  H      0.899698   -0.320380    1.970515
  C      0.000015   -1.837431   -0.670313
  C     -0.000016   -0.510290   -1.364688
  H     -0.899772   -0.320397   -1.970465
  H      0.000037   -2.760241   -1.256867
  H      0.899704   -0.320381   -1.970513
  S      0.000013    0.732918    0.000000
  O     -1.279974    1.450106   -0.000000
  O      1.280044    1.450028    0.000003

 Total Charge           Charge          ....    0
 Multiplicity           Mult            ....    1
 Number of Electrons    NEL             ....   62
 Basis Dimension        Dim             ....  132

ORBITAL ENERGIES
----------------

  NO   OCC          E(Eh)            E(eV)
   0   2.0000     -89.047894     -2423.1164
   1   2.0000     -19.113183      -520.0962
   2   2.0000     -19.113129      -520.0947
   3   2.0000     -10.230470      -278.3853
   4   2.0000     -10.230451      -278.3847
   5   2.0000     -10.224033      -278.2101
   6   2.0000     -10.223364      -278.1919
   7   2.0000      -8.115178      -220.8252
   8   2.0000      -6.082863      -165.5231
   9   2.0000      -6.082850      -165.5228
  10   2.0000      -6.082086      -165.5020
  11   2.0000      -1.087369       -29.5888
  12   2.0000      -0.979259       -26.6470
  13   2.0000      -0.859368       -23.3846
  14   2.0000      -0.755806       -20.5665
  15   2.0000      -0.715418       -19.4675
  16   2.0000      -0.593653       -16.1541
  17   2.0000      -0.578661       -15.7462
  18   2.0000      -0.517521       -14.0825
  19   2.0000      -0.484644       -13.1878
  20   2.0000      -0.458977       -12.4894
  21   2.0000      -0.453310       -12.3352
  22   2.0000      -0.452148       -12.3036
  23   2.0000      -0.430436       -11.7128
  24   2.0000      -0.420793       -11.4504
  25   2.0000      -0.401999       -10.9389
  26   2.0000      -0.317865        -8.6495
  27   2.0000      -0.308703        -8.4002
  28   2.0000      -0.296735        -8.0746
  29   2.0000      -0.283274        -7.7083
  30   2.0000      -0.279937        -7.6175
  31   0.0000      -0.018964        -0.5160
  32   0.0000       0.046792         1.2733
  33   0.0000       0.056710         1.5432
  34   0.0000       0.062492         1.7005
  35   0.0000       0.067102         1.8259

MULLIKEN ATOMIC CHARGES
-----------------------
   0 C :   -0.072470
   1 H :    0.024700
   2 C :    0.048866
   3 H :    0.070651
   4 H :    0.070651
   5 C :   -0.072471
   6 C :    0.048866
   7 H :    0.070651
   8 H :    0.024700
   9 H :    0.070651
  10 S :    0.675158
  11 O :   -0.479977
  12 O :   -0.479977
Sum of atomic charges:    0.0000000

LOEWDIN ATOMIC CHARGES
----------------------
   0 C :   -0.043182
   1 H :    0.034930
   2 C :   -0.139352
   3 H :    0.043222
   4 H :    0.043222
   5 C :   -0.043182
   6 C :   -0.139351
   7 H :    0.043222
   8 H :    0.034930
   9 H :    0.043222
  10 S :    1.169341
  11 O :   -0.523511
  12 O :   -0.523511

  Mayer bond orders larger than 0.100000
B(  0-C ,  1-H ) :   0.9752 B(  0-C ,  2-C ) :   1.0192 B(  0-C ,  5-C ) :   1.9277
B(  2-C ,  3-H ) :   0.9213 B(  2-C ,  4-H ) :   0.9213 B(  2-C , 10-S ) :   0.8129
B(  5-C ,  6-C ) :   1.0192 B(  5-C ,  8-H ) :   0.9752 B(  6-C ,  7-H ) :   0.9213
B(  6-C ,  9-H ) :   0.9213 B(  6-C , 10-S ) :   0.8129 B( 10-S , 11-O ) :   1.6662
B( 10-S , 12-O ) :   1.6662

Dispersion correction           -0.023705960
FINAL SINGLE POINT ENERGY      -704.029349108334
Dispersion correction             ... done (  0.1 sec)

DIPOLE MOMENT
-------------

Method             : SCF
Type of density    : Electron Density
Multiplicity       :   1
Irrep              :   0
Energy             :  -704.0056431480880974 Eh
Basis              : AO
                                X                 Y                 Z
Electronic contribution:      0.000086293       4.844682540       0.000001437
Nuclear contribution   :     -0.000135418      -6.676375727      -0.000003495
                        -----------------------------------------
Total Dipole Moment    :     -0.000049125      -1.831693187      -0.000002058
                        -----------------------------------------
Magnitude (a.u.)       :      1.831693188
Magnitude (Debye)      :      4.655794082

Rotational constants in cm-1:             0.129612             0.069387             0.064432
Rotational constants in MHz :          3885.677793          2080.166412          1931.635821

                             ****ORCA TERMINATED NORMALLY****
TOTAL RUN TIME: 0 days 0 hours 0 minutes 19 seconds 4 msec
