                         Program Version 6.1.0  -  RELEASE   -
|  1> ! B3LYP def2-SVP d3 EnGrad
|  2> %pal nprocs 6 end
|  3> *xyz 0 1
|  4> C   -1.92580923256143 0.49826006751108 0.07479091919617
|  5> C   -0.56500959667488 0.09035772609472 -0.44026181887101
|  6> H   -2.06434242588049 1.59114290326536 0.02250745088478
|  7> H   -2.05454445174688 0.19620727615288 1.12737352159301
|  8> H   -2.73615716266489 0.02494996397499 -0.50525462606647
|  9> C   0.63904627524318 0.05608269869228 0.45836808696015
| 10> O   1.89208174908932 0.51635004742385 0.05725413542666
| 11> C   0.05805924826448 -1.24042409518412 -0.03859842680779
| 12> H   0.47844590796093 0.3054683490177 1.5129784258408
| 13> H   -0.48570974849019 -1.88285404549935 0.66213151978482
| 14> H   0.62190136109556 -1.79051524555307 -0.80027661522578
| 15> H   2.05562021147011 0.2235097729142 -0.84838737355952
| 16> H   -0.35233813510479 0.40282858118948 -1.47138819915578
| 17> *
| 18>
| 19>                          ****END OF INPUT****

CARTESIAN COORDINATES (ANGSTROEM)
---------------------------------
  C     -1.925809    0.498260    0.074791
  C     -0.565010    0.090358   -0.440262
  H     -2.064342    1.591143    0.022507
  H     -2.054544    0.196207    1.127374
  H     -2.736157    0.024950   -0.505255
  C      0.639046    0.056083    0.458368
  O      1.892082    0.516350    0.057254
  C      0.058059   -1.240424   -0.038598
  H      0.478446    0.305468    1.512978
  H     -0.485710   -1.882854    0.662132
  H      0.621901   -1.790515   -0.800277
  H      2.055620    0.223510   -0.848387
  H     -0.352338    0.402829   -1.471388

 Total Charge           Charge          ....    0
 Multiplicity           Mult            ....    1
 Number of Electrons    NEL             ....   40
 Basis Dimension        Dim             ....  110

ORBITAL ENERGIES
----------------

  NO   OCC          E(Eh)            E(eV)
   0   2.0000     -19.127997      -520.4993
   1   2.0000     -10.232205      -278.4325
   2   2.0000     -10.188342      -277.2389
   3   2.0000     -10.183040      -277.0946
   4   2.0000     -10.181883      -277.0631
   5   2.0000      -1.011338       -27.5199
   6   2.0000      -0.839752       -22.8508
   7   2.0000      -0.700446       -19.0601
   8   2.0000      -0.605513       -16.4768
   9   2.0000      -0.570447       -15.5226
  10   2.0000      -0.506820       -13.7913
  11   2.0000      -0.471459       -12.8290
  12   2.0000      -0.420657       -11.4466
  13   2.0000      -0.403384       -10.9766
  14   2.0000      -0.381326       -10.3764
  15   2.0000      -0.371991       -10.1224
  16   2.0000      -0.368828       -10.0363
  17   2.0000      -0.347468        -9.4551
  18   2.0000      -0.277851        -7.5607
  19   2.0000      -0.236225        -6.4280
  20   0.0000       0.054483         1.4826
  21   0.0000       0.071689         1.9508
  22   0.0000       0.080468         2.1897
  23   0.0000       0.111084         3.0227
  24   0.0000       0.128198         3.4884

MULLIKEN ATOMIC CHARGES
-----------------------
   0 C :    0.090544
   1 C :   -0.154667
   2 H :    0.016436
   3 H :   -0.002555
   4 H :    0.012106
   5 C :    0.111643
   6 O :   -0.260429
   7 C :   -0.027341
   8 H :    0.012808
   9 H :    0.021916
  10 H :    0.015562
  11 H :    0.157373
  12 H :    0.006603
Sum of atomic charges:    0.0000000

LOEWDIN ATOMIC CHARGES
----------------------
   0 C :   -0.045677
   1 C :   -0.063591
   2 H :    0.026771
   3 H :    0.022930
   4 H :    0.024348
   5 C :    0.055269
   6 O :   -0.114228
   7 C :   -0.065989
   8 H :    0.019891
   9 H :    0.024090
  10 H :    0.021577
  11 H :    0.074570
  12 H :    0.020041

  Mayer bond orders larger than 0.100000
B(  0-C ,  1-C ) :   1.0888 B(  0-C ,  2-H ) :   0.9655 B(  0-C ,  3-H ) :   0.9571
B(  0-C ,  4-H ) :   0.9608 B(  1-C ,  5-C ) :   0.9375 B(  1-C ,  7-C ) :   0.9612
B(  1-C , 12-H ) :   0.9418 B(  5-C ,  6-O ) :   1.0991 B(  5-C ,  7-C ) :   0.9855
B(  5-C ,  8-H ) :   0.9544 B(  6-O , 11-H ) :   0.9742 B(  7-C ,  9-H ) :   0.9444
B(  7-C , 10-H ) :   0.9471

Dispersion correction           -0.014566662
FINAL SINGLE POINT ENERGY      -232.120045801200
Dispersion correction             ... done (  0.0 sec)

DIPOLE MOMENT
-------------

Method             : SCF
Type of density    : Electron Density
Multiplicity       :   1
Irrep              :   0
Energy             :  -232.1054791392849665 Eh
Basis              : AO
                                X                 Y                 Z
Electronic contribution:      4.326407901       0.620844856       0.021407734
Nuclear contribution   :     -4.661839684      -0.881816862      -0.412881547
                        -----------------------------------------
Total Dipole Moment    :     -0.335431783      -0.260972006      -0.391473813
                        -----------------------------------------
Magnitude (a.u.)       :      0.577817112
Magnitude (Debye)      :      1.468694381

Rotational constants in cm-1:             0.349493             0.116725             0.100641
Rotational constants in MHz :         10477.548881          3499.341479          3017.145514

                             ****ORCA TERMINATED NORMALLY****
TOTAL RUN TIME: 0 days 0 hours 0 minutes 13 seconds 744 msec
