                         Program Version 6.1.0  -  RELEASE   -
|  1> ! B3LYP def2-SVP d3 EnGrad
|  2> %pal nprocs 6 end
|  3> *xyz 0 1
|  4> C   -1.58572291100237 -0.84160847213746 -3.39907657e-06
|  5> C   -0.5305697119271 -1.65722303210517 4.34652695e-06
|  6> O   1.82767320854265 0.45290828278285 -2.187280664e-05
|  7> N   0.97442679271533 1.26997020651757 6.031628749e-05
|  8> N   0.1572175531995 2.0501381356986 -4.056288043e-05
|  9> H   -2.04209833505612 -0.48866007686699 0.93039929342888
| 10> H   -2.04208985274357 -0.48866569200588 -0.93041253064561
| 11> H   -0.07175706986641 -2.0073967924413 0.93006512898811
| 12> H   -0.07174967386193 -2.00740255964219 -0.9300507200222
| 13> *
| 14>
| 15>                          ****END OF INPUT****

CARTESIAN COORDINATES (ANGSTROEM)
---------------------------------
  C     -1.585723   -0.841608   -0.000003
  C     -0.530570   -1.657223    0.000004
  O      1.827673    0.452908   -0.000022
  N      0.974427    1.269970    0.000060
  N      0.157218    2.050138   -0.000041
  H     -2.042098   -0.488660    0.930399
  H     -2.042090   -0.488666   -0.930413
  H     -0.071757   -2.007397    0.930065
  H     -0.071750   -2.007403   -0.930051

 Total Charge           Charge          ....    0
 Multiplicity           Mult            ....    1
 Number of Electrons    NEL             ....   38
 Basis Dimension        Dim             ....   90

ORBITAL ENERGIES
----------------

  NO   OCC          E(Eh)            E(eV)
   0   2.0000     -19.228456      -523.2329
   1   2.0000     -14.550273      -395.9331
   2   2.0000     -14.418497      -392.3472
   3   2.0000     -10.190381      -277.2944
   4   2.0000     -10.189623      -277.2737
   5   2.0000      -1.231636       -33.5145
   6   2.0000      -1.074994       -29.2521
   7   2.0000      -0.751974       -20.4623
   8   2.0000      -0.586683       -15.9645
   9   2.0000      -0.571795       -15.5593
  10   2.0000      -0.561849       -15.2887
  11   2.0000      -0.561297       -15.2737
  12   2.0000      -0.466366       -12.6905
  13   2.0000      -0.464217       -12.6320
  14   2.0000      -0.421204       -11.4615
  15   2.0000      -0.354477        -9.6458
  16   2.0000      -0.336748        -9.1634
  17   2.0000      -0.336637        -9.1604
  18   2.0000      -0.276574        -7.5260
  19   0.0000      -0.010309        -0.2805
  20   0.0000      -0.010246        -0.2788
  21   0.0000       0.006457         0.1757
  22   0.0000       0.081879         2.2280
  23   0.0000       0.102962         2.8017

MULLIKEN ATOMIC CHARGES
-----------------------
   0 C :   -0.072835
   1 C :   -0.062589
   2 O :   -0.192423
   3 N :    0.461946
   4 N :   -0.260703
   5 H :    0.031458
   6 H :    0.031459
   7 H :    0.031843
   8 H :    0.031844
Sum of atomic charges:    0.0000000

LOEWDIN ATOMIC CHARGES
----------------------
   0 C :   -0.057559
   1 C :   -0.051655
   2 O :   -0.142576
   3 N :    0.246540
   4 N :   -0.094245
   5 H :    0.024713
   6 H :    0.024714
   7 H :    0.025033
   8 H :    0.025034

  Mayer bond orders larger than 0.100000
B(  0-C ,  1-C ) :   2.0648 B(  0-C ,  5-H ) :   0.9627 B(  0-C ,  6-H ) :   0.9627
B(  1-C ,  7-H ) :   0.9629 B(  1-C ,  8-H ) :   0.9629 B(  2-O ,  3-N ) :   1.5492
B(  2-O ,  4-N ) :   0.5214 B(  3-N ,  4-N ) :   2.1175

Dispersion correction           -0.008680542
FINAL SINGLE POINT ENERGY      -262.922856392020
Dispersion correction             ... done (  0.1 sec)

DIPOLE MOMENT
-------------

Method             : SCF
Type of density    : Electron Density
Multiplicity       :   1
Irrep              :   0
Energy             :  -262.9141758501552886 Eh
Basis              : AO
                                X                 Y                 Z
Electronic contribution:      4.753376741       5.625894682       0.000052535
Nuclear contribution   :     -4.741098765      -5.639241773       0.000004067
                        -----------------------------------------
Total Dipole Moment    :      0.012277976      -0.013347091       0.000056602
                        -----------------------------------------
Magnitude (a.u.)       :      0.018135511
Magnitude (Debye)      :      0.046096804

Rotational constants in cm-1:             0.280080             0.092334             0.071496
Rotational constants in MHz :          8396.590107          2768.102573          2143.408011

                             ****ORCA TERMINATED NORMALLY****
TOTAL RUN TIME: 0 days 0 hours 0 minutes 9 seconds 296 msec
