                         Program Version 6.1.0  -  RELEASE   -
|  1> ! B3LYP def2-SVP d3 EnGrad
|  2> %pal nprocs 6 end
|  3> *xyz 0 1
|  4> C   0.39170736117148 1.20960473861047 -2.0535174267405
|  5> C   0.38432820622539 0.35213793719776 -0.82304150510298
|  6> C   0.72853159573713 0.86744305502776 0.45070900525121
|  7> C   0.89668902359334 -0.02471351742292 1.61062010289451
|  8> O   1.45767298479374 -1.27641458289293 1.34260101665086
|  9> Cl   -1.1537912482774 -2.58729441665349 -0.10948618559614
| 10> S   -2.08783049762646 -0.77403115184402 0.60081633070657
| 11> O   -1.22738879874744 0.25832133287815 -0.38595406374482
| 12> Cl   -3.96185929530839 -1.98676684721702 1.31510008889395
| 13> H   0.04139960517126 2.22878619650452 -1.83367617860472
| 14> H   -0.26025744801335 0.76865606117526 -2.82107935666051
| 15> H   1.41447541356125 1.26668099671941 -2.46113748368647
| 16> H   0.65504271125606 -0.69682781706961 -0.98285912266834
| 17> H   0.62960879755936 1.94349567149811 0.63080520850604
| 18> H   1.47976447155705 0.47656176117205 2.40350642897531
| 19> H   -0.14633127168287 -0.13180498771647 2.04138894137248
| 20> H   0.75823838902985 -1.89383442996703 1.07520419955356
| 21> *
| 22>
| 23>                          ****END OF INPUT****

CARTESIAN COORDINATES (ANGSTROEM)
---------------------------------
  C      0.391707    1.209605   -2.053517
  C      0.384328    0.352138   -0.823042
  C      0.728532    0.867443    0.450709
  C      0.896689   -0.024714    1.610620
  O      1.457673   -1.276415    1.342601
  Cl    -1.153791   -2.587294   -0.109486
  S     -2.087830   -0.774031    0.600816
  O     -1.227389    0.258321   -0.385954
  Cl    -3.961859   -1.986767    1.315100
  H      0.041400    2.228786   -1.833676
  H     -0.260257    0.768656   -2.821079
  H      1.414475    1.266681   -2.461137
  H      0.655043   -0.696828   -0.982859
  H      0.629609    1.943496    0.630805
  H      1.479764    0.476562    2.403506
  H     -0.146331   -0.131805    2.041389
  H      0.758238   -1.893834    1.075204

 Total Charge           Charge          ....    0
 Multiplicity           Mult            ....    1
 Number of Electrons    NEL             ....   98
 Basis Dimension        Dim             ....  178

ORBITAL ENERGIES
----------------

  NO   OCC          E(Eh)            E(eV)
   0   2.0000    -101.525037     -2762.6367
   1   2.0000    -101.426665     -2759.9599
   2   2.0000     -88.980950     -2421.2947
   3   2.0000     -19.203446      -522.5523
   4   2.0000     -19.151249      -521.1320
   5   2.0000     -10.277517      -279.6654
   6   2.0000     -10.274283      -279.5774
   7   2.0000     -10.259665      -279.1797
   8   2.0000     -10.217323      -278.0275
   9   2.0000      -9.478323      -257.9183
  10   2.0000      -9.379895      -255.2399
  11   2.0000      -8.061393      -219.3617
  12   2.0000      -7.247728      -197.2207
  13   2.0000      -7.237637      -196.9461
  14   2.0000      -7.236926      -196.9268
  15   2.0000      -7.146625      -194.4696
  16   2.0000      -7.140633      -194.3065
  17   2.0000      -7.140262      -194.2964
  18   2.0000      -6.032194      -164.1443
  19   2.0000      -6.028681      -164.0487
  20   2.0000      -6.018577      -163.7738
  21   2.0000      -1.041877       -28.3509
  22   2.0000      -1.031250       -28.0617
  23   2.0000      -0.863693       -23.5023
  24   2.0000      -0.830645       -22.6030
  25   2.0000      -0.765692       -20.8355
  26   2.0000      -0.747526       -20.3412
  27   2.0000      -0.692651       -18.8480
  28   2.0000      -0.659298       -17.9404
  29   2.0000      -0.598281       -16.2800
  30   2.0000      -0.548540       -14.9265
  31   2.0000      -0.526868       -14.3368
  32   2.0000      -0.505470       -13.7545
  33   2.0000      -0.492241       -13.3946
  34   2.0000      -0.448987       -12.2176
  35   2.0000      -0.441630       -12.0173
  36   2.0000      -0.431287       -11.7359
  37   2.0000      -0.424323       -11.5464
  38   2.0000      -0.404930       -11.0187
  39   2.0000      -0.398573       -10.8457
  40   2.0000      -0.373346       -10.1593
  41   2.0000      -0.358591        -9.7578
  42   2.0000      -0.337634        -9.1875
  43   2.0000      -0.332780        -9.0554
  44   2.0000      -0.304363        -8.2821
  45   2.0000      -0.285358        -7.7650
  46   2.0000      -0.259451        -7.0600
  47   2.0000      -0.249009        -6.7759
  48   2.0000      -0.232780        -6.3343
  49   0.0000      -0.136548        -3.7157
  50   0.0000      -0.107218        -2.9175
  51   0.0000      -0.006104        -0.1661
  52   0.0000       0.044681         1.2158
  53   0.0000       0.054511         1.4833

MULLIKEN ATOMIC CHARGES
-----------------------
   0 C :    0.081213
   1 C :    0.083373
   2 C :   -0.037062
   3 C :    0.218459
   4 O :   -0.303874
   5 Cl:   -0.139366
   6 S :    0.473984
   7 O :   -0.447743
   8 Cl:   -0.367149
   9 H :    0.024512
  10 H :    0.041975
  11 H :    0.040834
  12 H :    0.033671
  13 H :    0.042338
  14 H :    0.036966
  15 H :    0.052995
  16 H :    0.164875
Sum of atomic charges:    0.0000000

LOEWDIN ATOMIC CHARGES
----------------------
   0 C :   -0.044263
   1 C :    0.085140
   2 C :    0.050960
   3 C :    0.057798
   4 O :   -0.126898
   5 Cl:   -0.082038
   6 S :    0.465986
   7 O :   -0.339153
   8 Cl:   -0.357414
   9 H :    0.034992
  10 H :    0.043844
  11 H :    0.043202
  12 H :    0.020417
  13 H :    0.038508
  14 H :    0.042316
  15 H :    0.029266
  16 H :    0.037336

  Mayer bond orders larger than 0.100000
B(  0-C ,  1-C ) :   1.0975 B(  0-C ,  9-H ) :   0.9539 B(  0-C , 10-H ) :   0.9511
B(  0-C , 11-H ) :   0.9541 B(  1-C ,  2-C ) :   1.2287 B(  1-C ,  7-O ) :   0.5628
B(  1-C , 12-H ) :   0.9271 B(  2-C ,  3-C ) :   1.0851 B(  2-C ,  6-S ) :   0.2388
B(  2-C ,  7-O ) :   0.2076 B(  2-C , 13-H ) :   0.9451 B(  3-C ,  4-O ) :   1.0863
B(  3-C , 14-H ) :   0.9208 B(  3-C , 15-H ) :   0.8497 B(  4-O , 16-H ) :   0.9411
B(  5-Cl,  6-S ) :   0.8693 B(  6-S ,  7-O ) :   0.9428 B(  6-S ,  8-Cl) :   0.6342
B(  7-O ,  8-Cl) :   0.1145

Dispersion correction           -0.033808055
FINAL SINGLE POINT ENERGY     -1625.196672841330
Dispersion correction             ... done (  0.0 sec)

DIPOLE MOMENT
-------------

Method             : SCF
Type of density    : Electron Density
Multiplicity       :   1
Irrep              :   0
Energy             : -1625.1628647864283721 Eh
Basis              : AO
                                X                 Y                 Z
Electronic contribution:    -14.576186416     -12.467156477       4.464801464
Nuclear contribution   :     16.548105165      14.163315378      -5.103108788
                        -----------------------------------------
Total Dipole Moment    :      1.971918749       1.696158901      -0.638307324
                        -----------------------------------------
Magnitude (a.u.)       :      2.678218589
Magnitude (Debye)      :      6.807490652

Rotational constants in cm-1:             0.047513             0.018870             0.017233
Rotational constants in MHz :          1424.404595           565.703293           516.646113

                             ****ORCA TERMINATED NORMALLY****
TOTAL RUN TIME: 0 days 0 hours 0 minutes 34 seconds 651 msec
