                         Program Version 6.1.0  -  RELEASE   -
|  1> ! B3LYP def2-SVP d3 EnGrad
|  2> %pal nprocs 6 end
|  3> *xyz 0 1
|  4> C   3.68563171632498 -0.19762852029221 0.80369365393621
|  5> C   2.24387363788673 -0.07116027418423 0.34902794944808
|  6> H   3.88135854628238 0.56461546282705 1.57343950973538
|  7> H   4.38729912542728 -0.07906607650534 -0.0315314357794
|  8> H   3.82134100834016 -1.18407766794491 1.2732947013514
|  9> O   2.0811751861439 0.14372231778578 -0.91083923662435
| 10> O   0.25049387165395 0.22828821958735 -1.08155843953962
| 11> H   0.29379127599431 0.06359057262292 -0.08479066283167
| 12> O   1.30452674253307 -0.17256561394546 1.15380213909319
| 13> C   -1.74459034206452 0.9122081327641 -0.84841008366203
| 14> C   -1.71227074213182 -0.42399248061084 -1.17251387696988
| 15> C   -1.82515242733651 -1.58236808513544 -0.23337509325042
| 16> H   -1.70905760679898 -0.6712527211307 -2.23771895452409
| 17> H   -1.63837315927101 -1.30736324693086 0.81344929302212
| 18> H   -1.10681273975486 -2.36783704410207 -0.51330535852143
| 19> H   -2.83488157352702 -2.02606988851811 -0.30031657575478
| 20> C   -1.8782199541496 1.50531897892966 0.51710261351869
| 21> H   -1.7413241540822 1.62138975043718 -1.68112828922047
| 22> H   -1.76001458650131 0.76782109630988 1.32217157124982
| 23> H   -2.8709617350006 1.97879812614774 0.62399361077502
| 24> H   -1.12783208996835 2.29762896188852 0.66551296454821
| 25> *
| 26>
| 27>                          ****END OF INPUT****

CARTESIAN COORDINATES (ANGSTROEM)
---------------------------------
  C      3.685632   -0.197629    0.803694
  C      2.243874   -0.071160    0.349028
  H      3.881359    0.564615    1.573440
  H      4.387299   -0.079066   -0.031531
  H      3.821341   -1.184078    1.273295
  O      2.081175    0.143722   -0.910839
  O      0.250494    0.228288   -1.081558
  H      0.293791    0.063591   -0.084791
  O      1.304527   -0.172566    1.153802
  C     -1.744590    0.912208   -0.848410
  C     -1.712271   -0.423992   -1.172514
  C     -1.825152   -1.582368   -0.233375
  H     -1.709058   -0.671253   -2.237719
  H     -1.638373   -1.307363    0.813449
  H     -1.106813   -2.367837   -0.513305
  H     -2.834882   -2.026070   -0.300317
  C     -1.878220    1.505319    0.517103
  H     -1.741324    1.621390   -1.681128
  H     -1.760015    0.767821    1.322172
  H     -2.870962    1.978798    0.623994
  H     -1.127832    2.297629    0.665513

 Total Charge           Charge          ....    0
 Multiplicity           Mult            ....    1
 Number of Electrons    NEL             ....   72
 Basis Dimension        Dim             ....  186

ORBITAL ENERGIES
----------------

  NO   OCC          E(Eh)            E(eV)
   0   2.0000     -19.177937      -521.8582
   1   2.0000     -19.138817      -520.7937
   2   2.0000     -19.096591      -519.6447
   3   2.0000     -10.287023      -279.9241
   4   2.0000     -10.229740      -278.3654
   5   2.0000     -10.228670      -278.3363
   6   2.0000     -10.199829      -277.5515
   7   2.0000     -10.199045      -277.5301
   8   2.0000     -10.184360      -277.1305
   9   2.0000      -1.060532       -28.8585
  10   2.0000      -0.962089       -26.1798
  11   2.0000      -0.934355       -25.4251
  12   2.0000      -0.810862       -22.0647
  13   2.0000      -0.737937       -20.0803
  14   2.0000      -0.717000       -19.5106
  15   2.0000      -0.670075       -18.2337
  16   2.0000      -0.545094       -14.8328
  17   2.0000      -0.513152       -13.9636
  18   2.0000      -0.506909       -13.7937
  19   2.0000      -0.479190       -13.0394
  20   2.0000      -0.456927       -12.4336
  21   2.0000      -0.446332       -12.1453
  22   2.0000      -0.439644       -11.9633
  23   2.0000      -0.430561       -11.7162
  24   2.0000      -0.420056       -11.4303
  25   2.0000      -0.407213       -11.0808
  26   2.0000      -0.402804       -10.9609
  27   2.0000      -0.386824       -10.5260
  28   2.0000      -0.382636       -10.4121
  29   2.0000      -0.372571       -10.1382
  30   2.0000      -0.360634        -9.8133
  31   2.0000      -0.348181        -9.4745
  32   2.0000      -0.310323        -8.4443
  33   2.0000      -0.272324        -7.4103
  34   2.0000      -0.261235        -7.1086
  35   2.0000      -0.240001        -6.5308
  36   0.0000      -0.078147        -2.1265
  37   0.0000       0.000801         0.0218
  38   0.0000       0.037767         1.0277
  39   0.0000       0.052588         1.4310
  40   0.0000       0.074729         2.0335

MULLIKEN ATOMIC CHARGES
-----------------------
   0 C :    0.057963
   1 C :    0.117871
   2 H :    0.038511
   3 H :    0.027096
   4 H :    0.038587
   5 O :   -0.241465
   6 O :   -0.203617
   7 H :    0.226626
   8 O :   -0.359889
   9 C :   -0.066398
  10 C :   -0.046194
  11 C :    0.078207
  12 H :    0.026012
  13 H :    0.027297
  14 H :    0.040087
  15 H :    0.032658
  16 C :    0.077044
  17 H :    0.027198
  18 H :    0.025217
  19 H :    0.033441
  20 H :    0.043749
Sum of atomic charges:   -0.0000000

LOEWDIN ATOMIC CHARGES
----------------------
   0 C :   -0.067886
   1 C :    0.044573
   2 H :    0.044836
   3 H :    0.033413
   4 H :    0.044916
   5 O :   -0.133233
   6 O :   -0.027546
   7 H :    0.039439
   8 O :   -0.251042
   9 C :    0.034026
  10 C :    0.039090
  11 C :   -0.056507
  12 H :    0.036153
  13 H :    0.033759
  14 H :    0.044218
  15 H :    0.041136
  16 C :   -0.056755
  17 H :    0.036042
  18 H :    0.033768
  19 H :    0.042038
  20 H :    0.045562

  Mayer bond orders larger than 0.100000
B(  0-C ,  1-C ) :   1.0280 B(  0-C ,  2-H ) :   0.9510 B(  0-C ,  3-H ) :   0.9584
B(  0-C ,  4-H ) :   0.9508 B(  1-C ,  5-O ) :   1.4850 B(  1-C ,  8-O ) :   1.7455
B(  5-O ,  6-O ) :   0.4857 B(  5-O ,  8-O ) :   0.1027 B(  5-O ,  9-C ) :   0.1109
B(  6-O ,  7-H ) :   0.8116 B(  6-O ,  9-C ) :   0.3208 B(  6-O , 10-C ) :   0.3372
B(  7-H ,  8-O ) :   0.2209 B(  9-C , 10-C ) :   1.5142 B(  9-C , 16-C ) :   1.1098
B(  9-C , 17-H ) :   0.9524 B( 10-C , 11-C ) :   1.1095 B( 10-C , 12-H ) :   0.9495
B( 11-C , 13-H ) :   0.9515 B( 11-C , 14-H ) :   0.9462 B( 11-C , 15-H ) :   0.9410
B( 16-C , 18-H ) :   0.9539 B( 16-C , 19-H ) :   0.9395 B( 16-C , 20-H ) :   0.9442

Dispersion correction           -0.028540039
FINAL SINGLE POINT ENERGY      -460.833664288129
Dispersion correction             ... done (  0.0 sec)

DIPOLE MOMENT
-------------

Method             : SCF
Type of density    : Electron Density
Multiplicity       :   1
Irrep              :   0
Energy             :  -460.8051242492657025 Eh
Basis              : AO
                                X                 Y                 Z
Electronic contribution:      4.630449525       0.679856386      -2.837211222
Nuclear contribution   :     -5.706679868      -0.707417411       2.947806396
                        -----------------------------------------
Total Dipole Moment    :     -1.076230343      -0.027561024       0.110595174
                        -----------------------------------------
Magnitude (a.u.)       :      1.082248887
Magnitude (Debye)      :      2.750858057

Rotational constants in cm-1:             0.091682             0.026146             0.025496
Rotational constants in MHz :          2748.546808           783.837142           764.355521

                             ****ORCA TERMINATED NORMALLY****
TOTAL RUN TIME: 0 days 0 hours 0 minutes 32 seconds 660 msec
